 vasp.5.4.4.18Apr17-6-g9f103f2a35 (build Dec 28 2018 10:32:06) complex          
  
 executed on             LinuxIFC date 2021.04.06  20:50:41
 running on   40 total cores
 distrk:  each k-point on   40 cores,    1 groups
 distr:  one band on NCORES_PER_BAND=   1 cores,   40 groups


--------------------------------------------------------------------------------------------------------


 INCAR:
 POTCAR:    PAW_PBE C 08Apr2002                   

 ----------------------------------------------------------------------------- 
|                                                                             |
|           W    W    AA    RRRRR   N    N  II  N    N   GGGG   !!!           |
|           W    W   A  A   R    R  NN   N  II  NN   N  G    G  !!!           |
|           W    W  A    A  R    R  N N  N  II  N N  N  G       !!!           |
|           W WW W  AAAAAA  RRRRR   N  N N  II  N  N N  G  GGG   !            |
|           WW  WW  A    A  R   R   N   NN  II  N   NN  G    G                |
|           W    W  A    A  R    R  N    N  II  N    N   GGGG   !!!           |
|                                                                             |
|      For optimal performance we recommend to set                            |
|        NCORE= 4 - approx SQRT( number of cores)                             |
|      NCORE specifies how many cores store one orbital (NPAR=cpu/NCORE).     |
|      This setting can  greatly improve the performance of VASP for DFT.     |
|      The default,   NCORE=1            might be grossly inefficient         |
|      on modern multi-core architectures or massively parallel machines.     |
|      Do your own testing !!!!                                               |
|      Unfortunately you need to use the default for GW and RPA calculations. |
|      (for HF NCORE is supported but not extensively tested yet)             |
|                                                                             |
 ----------------------------------------------------------------------------- 

 POTCAR:    PAW_PBE C 08Apr2002                   
   VRHFIN =C: s2p2                                                              
   LEXCH  = PE                                                                  
   EATOM  =   147.1560 eV,   10.8157 Ry                                         
                                                                                
   TITEL  = PAW_PBE C 08Apr2002                                                 
   LULTRA =        F    use ultrasoft PP ?                                      
   IUNSCR =        1    unscreen: 0-lin 1-nonlin 2-no                           
   RPACOR =    1.200    partial core radius                                     
   POMASS =   12.011; ZVAL   =    4.000    mass and valenz                      
   RCORE  =    1.500    outmost cutoff radius                                   
   RWIGS  =    1.630; RWIGS  =    0.863    wigner-seitz radius (au A)           
   ENMAX  =  400.000; ENMIN  =  300.000 eV                                      
   ICORE  =        2    local potential                                         
   LCOR   =        T    correct aug charges                                     
   LPAW   =        T    paw PP                                                  
   EAUG   =  644.873                                                            
   DEXC   =    0.000                                                            
   RMAX   =    1.529    core radius for proj-oper                               
   RAUG   =    1.300    factor for augmentation sphere                          
   RDEP   =    1.501    radius for radial grids                                 
   RDEPT  =    1.300    core radius for aug-charge                              
                                                                                
   Atomic configuration                                                         
    4 entries                                                                   
     n  l   j            E        occ.                                          
     1  0  0.50      -273.3789   2.0000                                         
     2  0  0.50       -13.7508   2.0000                                         
     2  1  0.50        -5.2854   2.0000                                         
     3  2  1.50        -5.4423   0.0000                                         
   Description                                                                  
     l       E           TYP  RCUT    TYP  RCUT                                 
     0    -13.7508458     23  1.200                                             
     0     -8.2022199     23  1.200                                             
     1     -5.2854383     23  1.500                                             
     1     34.0145650     23  1.500                                             
     2     -5.4423304      7  1.500                                             
  local pseudopotential read in
  partial core-charges read in
  partial kinetic energy density read in
  atomic valenz-charges read in
  non local Contribution for L=           0  read in
    real space projection operators read in
  non local Contribution for L=           0  read in
    real space projection operators read in
  non local Contribution for L=           1  read in
    real space projection operators read in
  non local Contribution for L=           1  read in
    real space projection operators read in
    PAW grid and wavefunctions read in
 
   number of l-projection  operators is LMAX  =           4
   number of lm-projection operators is LMMAX =           8
 
  PAW_PBE C 08Apr2002                   :
 energy of atom  1       EATOM= -147.1560
 kinetic energy error for atom=    0.0076 (will be added to EATOM!!)
 
 
 POSCAR: Graphene                                
  positions in direct lattice
  velocities in cartesian coordinates
 exchange correlation table for  LEXCH =        8
   RHO(1)=    0.500       N(1)  =     2000
   RHO(2)=  100.500       N(2)  =     4000
 


--------------------------------------------------------------------------------------------------------


 ion  position               nearest neighbor table
   1  0.333  0.667  0.500-   2 1.43   2 1.43   2 1.43
   2  0.667  0.333  0.500-   1 1.43   1 1.43   1 1.43
 
  LATTYP: Found a hexagonal cell.
 ALAT       =     2.4682340515
 C/A-ratio  =    12.1524536957
  
  Lattice vectors:
  
 A1 = (   2.4682341087,   0.0000000000,   0.0000000000)
 A2 = (  -1.2341170932,   2.1375533970,   0.0000000000)
 A3 = (   0.0000000000,   0.0000000000,  29.9951000214)


Analysis of symmetry for initial positions (statically):
=====================================================================
 Subroutine PRICEL returns:
 Original cell was already a primitive cell.
 

 Routine SETGRP: Setting up the symmetry group for a 
 hexagonal supercell.


 Subroutine GETGRP returns: Found 24 space group operations
 (whereof 24 operations were pure point group operations)
 out of a pool of 24 trial point group operations.


The static configuration has the point symmetry D_6h.


Analysis of symmetry for dynamics (positions and initial velocities):
=====================================================================
 Subroutine PRICEL returns:
 Original cell was already a primitive cell.
 

 Routine SETGRP: Setting up the symmetry group for a 
 hexagonal supercell.


 Subroutine GETGRP returns: Found 24 space group operations
 (whereof 24 operations were pure point group operations)
 out of a pool of 24 trial point group operations.


The dynamic configuration has the point symmetry D_6h.


 Subroutine INISYM returns: Found 24 space group operations
 (whereof 24 operations are pure point group operations),
 and found     1 'primitive' translations

 
 
 KPOINTS: Automatic mesh                          

Automatic generation of k-mesh.
Space group operators:
 irot       det(A)        alpha          n_x          n_y          n_z        tau_x        tau_y        tau_z
    1     1.000000     0.000001     1.000000     0.000000     0.000000     0.000000     0.000000     0.000000
    2    -1.000000     0.000001     1.000000     0.000000     0.000000     0.000000     0.000000     0.000000
    3     1.000000    60.000000     0.000000     0.000000    -1.000000     0.000000     0.000000     0.000000
    4    -1.000000    60.000000     0.000000     0.000000    -1.000000     0.000000     0.000000     0.000000
    5     1.000000   120.000000     0.000000     0.000000    -1.000000     0.000000     0.000000     0.000000
    6    -1.000000   120.000000     0.000000     0.000000    -1.000000     0.000000     0.000000     0.000000
    7     1.000000   180.000000     0.000000     0.000000     1.000000     0.000000     0.000000     0.000000
    8    -1.000000   180.000000     0.000000     0.000000     1.000000     0.000000     0.000000     0.000000
    9     1.000000   120.000000     0.000000     0.000000     1.000000     0.000000     0.000000     0.000000
   10    -1.000000   120.000000     0.000000     0.000000     1.000000     0.000000     0.000000     0.000000
   11     1.000000    60.000000     0.000000     0.000000     1.000000     0.000000     0.000000     0.000000
   12    -1.000000    60.000000     0.000000     0.000000     1.000000     0.000000     0.000000     0.000000
   13     1.000000   180.000000     1.000000     0.000000     0.000000     0.000000     0.000000     0.000000
   14    -1.000000   180.000000     1.000000     0.000000     0.000000     0.000000     0.000000     0.000000
   15     1.000000   180.000000     0.866025    -0.500000     0.000000     0.000000     0.000000     0.000000
   16    -1.000000   180.000000     0.866025    -0.500000     0.000000     0.000000     0.000000     0.000000
   17     1.000000   179.999999     0.500000    -0.866025     0.000000     0.000000     0.000000     0.000000
   18    -1.000000   179.999999     0.500000    -0.866025     0.000000     0.000000     0.000000     0.000000
   19     1.000000   179.999999     0.000000     1.000000     0.000000     0.000000     0.000000     0.000000
   20    -1.000000   179.999999     0.000000     1.000000     0.000000     0.000000     0.000000     0.000000
   21     1.000000   179.999999    -0.500000    -0.866025     0.000000     0.000000     0.000000     0.000000
   22    -1.000000   179.999999    -0.500000    -0.866025     0.000000     0.000000     0.000000     0.000000
   23     1.000000   180.000000     0.866025     0.500000     0.000000     0.000000     0.000000     0.000000
   24    -1.000000   180.000000     0.866025     0.500000     0.000000     0.000000     0.000000     0.000000
 
 Subroutine IBZKPT returns following result:
 ===========================================
 
 Found     27 irreducible k-points:
 
 Following reciprocal coordinates:
            Coordinates               Weight
  0.000000  0.000000  0.000000      1.000000
  0.066667  0.000000  0.000000      6.000000
  0.133333  0.000000  0.000000      6.000000
  0.200000  0.000000  0.000000      6.000000
  0.266667  0.000000  0.000000      6.000000
  0.333333  0.000000  0.000000      6.000000
  0.400000  0.000000  0.000000      6.000000
  0.466667  0.000000  0.000000      6.000000
  0.066667  0.066667  0.000000      6.000000
  0.133333  0.066667  0.000000     12.000000
  0.200000  0.066667  0.000000     12.000000
  0.266667  0.066667  0.000000     12.000000
  0.333333  0.066667  0.000000     12.000000
  0.400000  0.066667  0.000000     12.000000
  0.466667  0.066667  0.000000      6.000000
  0.133333  0.133333  0.000000      6.000000
  0.200000  0.133333  0.000000     12.000000
  0.266667  0.133333  0.000000     12.000000
  0.333333  0.133333  0.000000     12.000000
  0.400000  0.133333  0.000000     12.000000
  0.200000  0.200000  0.000000      6.000000
  0.266667  0.200000  0.000000     12.000000
  0.333333  0.200000  0.000000     12.000000
  0.400000  0.200000  0.000000      6.000000
  0.266667  0.266667  0.000000      6.000000
  0.333333  0.266667  0.000000     12.000000
  0.333333  0.333333  0.000000      2.000000
 
 Following cartesian coordinates:
            Coordinates               Weight
  0.000000  0.000000  0.000000      1.000000
  0.027010  0.015594  0.000000      6.000000
  0.054020  0.031188  0.000000      6.000000
  0.081030  0.046782  0.000000      6.000000
  0.108039  0.062377  0.000000      6.000000
  0.135049  0.077971  0.000000      6.000000
  0.162059  0.093565  0.000000      6.000000
  0.189069  0.109159  0.000000      6.000000
  0.027010  0.046782  0.000000      6.000000
  0.054020  0.062377  0.000000     12.000000
  0.081030  0.077971  0.000000     12.000000
  0.108039  0.093565  0.000000     12.000000
  0.135049  0.109159  0.000000     12.000000
  0.162059  0.124753  0.000000     12.000000
  0.189069  0.140347  0.000000      6.000000
  0.054020  0.093565  0.000000      6.000000
  0.081030  0.109159  0.000000     12.000000
  0.108039  0.124753  0.000000     12.000000
  0.135049  0.140347  0.000000     12.000000
  0.162059  0.155942  0.000000     12.000000
  0.081030  0.140347  0.000000      6.000000
  0.108039  0.155942  0.000000     12.000000
  0.135049  0.171536  0.000000     12.000000
  0.162059  0.187130  0.000000      6.000000
  0.108039  0.187130  0.000000      6.000000
  0.135049  0.202724  0.000000     12.000000
  0.135049  0.233912  0.000000      2.000000
 
 
 Subroutine IBZKPT_HF returns following result:
 ==============================================
 
 Found    225 k-points in 1st BZ
 the following    225 k-points will be used (e.g. in the exchange kernel)
 Following reciprocal coordinates:   # in IRBZ
  0.000000  0.000000  0.000000    0.00444444   1 t-inv F
  0.066667  0.000000  0.000000    0.00444444   2 t-inv F
  0.133333  0.000000  0.000000    0.00444444   3 t-inv F
  0.200000  0.000000  0.000000    0.00444444   4 t-inv F
  0.266667  0.000000  0.000000    0.00444444   5 t-inv F
  0.333333  0.000000  0.000000    0.00444444   6 t-inv F
  0.400000  0.000000  0.000000    0.00444444   7 t-inv F
  0.466667  0.000000  0.000000    0.00444444   8 t-inv F
  0.066667  0.066667  0.000000    0.00444444   9 t-inv F
  0.133333  0.066667  0.000000    0.00444444  10 t-inv F
  0.200000  0.066667  0.000000    0.00444444  11 t-inv F
  0.266667  0.066667  0.000000    0.00444444  12 t-inv F
  0.333333  0.066667  0.000000    0.00444444  13 t-inv F
  0.400000  0.066667  0.000000    0.00444444  14 t-inv F
  0.466667  0.066667  0.000000    0.00444444  15 t-inv F
  0.133333  0.133333  0.000000    0.00444444  16 t-inv F
  0.200000  0.133333  0.000000    0.00444444  17 t-inv F
  0.266667  0.133333  0.000000    0.00444444  18 t-inv F
  0.333333  0.133333  0.000000    0.00444444  19 t-inv F
  0.400000  0.133333  0.000000    0.00444444  20 t-inv F
  0.200000  0.200000  0.000000    0.00444444  21 t-inv F
  0.266667  0.200000  0.000000    0.00444444  22 t-inv F
  0.333333  0.200000  0.000000    0.00444444  23 t-inv F
  0.400000  0.200000  0.000000    0.00444444  24 t-inv F
  0.266667  0.266667  0.000000    0.00444444  25 t-inv F
  0.333333  0.266667  0.000000    0.00444444  26 t-inv F
  0.333333  0.333333  0.000000    0.00444444  27 t-inv F
 -0.066667 -0.000000  0.000000    0.00444444   2 t-inv F
 -0.000000  0.066667  0.000000    0.00444444   2 t-inv F
  0.000000 -0.066667  0.000000    0.00444444   2 t-inv F
 -0.066667  0.066667  0.000000    0.00444444   2 t-inv F
  0.066667 -0.066667  0.000000    0.00444444   2 t-inv F
 -0.133333 -0.000000  0.000000    0.00444444   3 t-inv F
 -0.000000  0.133333  0.000000    0.00444444   3 t-inv F
  0.000000 -0.133333  0.000000    0.00444444   3 t-inv F
 -0.133333  0.133333  0.000000    0.00444444   3 t-inv F
  0.133333 -0.133333  0.000000    0.00444444   3 t-inv F
 -0.200000 -0.000000  0.000000    0.00444444   4 t-inv F
 -0.000000  0.200000  0.000000    0.00444444   4 t-inv F
  0.000000 -0.200000  0.000000    0.00444444   4 t-inv F
 -0.200000  0.200000  0.000000    0.00444444   4 t-inv F
  0.200000 -0.200000  0.000000    0.00444444   4 t-inv F
 -0.266667 -0.000000  0.000000    0.00444444   5 t-inv F
 -0.000000  0.266667  0.000000    0.00444444   5 t-inv F
  0.000000 -0.266667  0.000000    0.00444444   5 t-inv F
 -0.266667  0.266667  0.000000    0.00444444   5 t-inv F
  0.266667 -0.266667  0.000000    0.00444444   5 t-inv F
 -0.333333 -0.000000  0.000000    0.00444444   6 t-inv F
 -0.000000  0.333333  0.000000    0.00444444   6 t-inv F
  0.000000 -0.333333  0.000000    0.00444444   6 t-inv F
 -0.333333  0.333333  0.000000    0.00444444   6 t-inv F
  0.333333 -0.333333  0.000000    0.00444444   6 t-inv F
 -0.400000 -0.000000  0.000000    0.00444444   7 t-inv F
 -0.000000  0.400000  0.000000    0.00444444   7 t-inv F
  0.000000 -0.400000  0.000000    0.00444444   7 t-inv F
 -0.400000  0.400000  0.000000    0.00444444   7 t-inv F
  0.400000 -0.400000  0.000000    0.00444444   7 t-inv F
 -0.466667 -0.000000  0.000000    0.00444444   8 t-inv F
 -0.000000  0.466667  0.000000    0.00444444   8 t-inv F
  0.000000 -0.466667  0.000000    0.00444444   8 t-inv F
 -0.466667  0.466667  0.000000    0.00444444   8 t-inv F
  0.466667 -0.466667  0.000000    0.00444444   8 t-inv F
 -0.066667 -0.066667  0.000000    0.00444444   9 t-inv F
 -0.066667  0.133333  0.000000    0.00444444   9 t-inv F
  0.066667 -0.133333  0.000000    0.00444444   9 t-inv F
 -0.133333  0.066667  0.000000    0.00444444   9 t-inv F
  0.133333 -0.066667  0.000000    0.00444444   9 t-inv F
 -0.133333 -0.066667  0.000000    0.00444444  10 t-inv F
 -0.066667  0.200000  0.000000    0.00444444  10 t-inv F
  0.066667 -0.200000  0.000000    0.00444444  10 t-inv F
 -0.200000  0.133333  0.000000    0.00444444  10 t-inv F
  0.200000 -0.133333  0.000000    0.00444444  10 t-inv F
  0.133333 -0.200000  0.000000    0.00444444  10 t-inv F
 -0.133333  0.200000  0.000000    0.00444444  10 t-inv F
 -0.066667 -0.133333  0.000000    0.00444444  10 t-inv F
  0.066667  0.133333  0.000000    0.00444444  10 t-inv F
 -0.200000  0.066667  0.000000    0.00444444  10 t-inv F
  0.200000 -0.066667  0.000000    0.00444444  10 t-inv F
 -0.200000 -0.066667  0.000000    0.00444444  11 t-inv F
 -0.066667  0.266667  0.000000    0.00444444  11 t-inv F
  0.066667 -0.266667  0.000000    0.00444444  11 t-inv F
 -0.266667  0.200000  0.000000    0.00444444  11 t-inv F
  0.266667 -0.200000  0.000000    0.00444444  11 t-inv F
  0.200000 -0.266667  0.000000    0.00444444  11 t-inv F
 -0.200000  0.266667  0.000000    0.00444444  11 t-inv F
 -0.066667 -0.200000  0.000000    0.00444444  11 t-inv F
  0.066667  0.200000  0.000000    0.00444444  11 t-inv F
 -0.266667  0.066667  0.000000    0.00444444  11 t-inv F
  0.266667 -0.066667  0.000000    0.00444444  11 t-inv F
 -0.266667 -0.066667  0.000000    0.00444444  12 t-inv F
 -0.066667  0.333333  0.000000    0.00444444  12 t-inv F
  0.066667 -0.333333  0.000000    0.00444444  12 t-inv F
 -0.333333  0.266667  0.000000    0.00444444  12 t-inv F
  0.333333 -0.266667  0.000000    0.00444444  12 t-inv F
  0.266667 -0.333333  0.000000    0.00444444  12 t-inv F
 -0.266667  0.333333  0.000000    0.00444444  12 t-inv F
 -0.066667 -0.266667  0.000000    0.00444444  12 t-inv F
  0.066667  0.266667  0.000000    0.00444444  12 t-inv F
 -0.333333  0.066667  0.000000    0.00444444  12 t-inv F
  0.333333 -0.066667  0.000000    0.00444444  12 t-inv F
 -0.333333 -0.066667  0.000000    0.00444444  13 t-inv F
 -0.066667  0.400000  0.000000    0.00444444  13 t-inv F
  0.066667 -0.400000  0.000000    0.00444444  13 t-inv F
 -0.400000  0.333333  0.000000    0.00444444  13 t-inv F
  0.400000 -0.333333  0.000000    0.00444444  13 t-inv F
  0.333333 -0.400000  0.000000    0.00444444  13 t-inv F
 -0.333333  0.400000  0.000000    0.00444444  13 t-inv F
 -0.066667 -0.333333  0.000000    0.00444444  13 t-inv F
  0.066667  0.333333  0.000000    0.00444444  13 t-inv F
 -0.400000  0.066667  0.000000    0.00444444  13 t-inv F
  0.400000 -0.066667  0.000000    0.00444444  13 t-inv F
 -0.400000 -0.066667  0.000000    0.00444444  14 t-inv F
 -0.066667  0.466667  0.000000    0.00444444  14 t-inv F
  0.066667 -0.466667  0.000000    0.00444444  14 t-inv F
 -0.466667  0.400000  0.000000    0.00444444  14 t-inv F
  0.466667 -0.400000  0.000000    0.00444444  14 t-inv F
  0.400000 -0.466667  0.000000    0.00444444  14 t-inv F
 -0.400000  0.466667  0.000000    0.00444444  14 t-inv F
 -0.066667 -0.400000  0.000000    0.00444444  14 t-inv F
  0.066667  0.400000  0.000000    0.00444444  14 t-inv F
 -0.466667  0.066667  0.000000    0.00444444  14 t-inv F
  0.466667 -0.066667  0.000000    0.00444444  14 t-inv F
 -0.466667 -0.066667  0.000000    0.00444444  15 t-inv F
 -0.066667  0.533333  0.000000    0.00444444  15 t-inv F
  0.066667 -0.533333  0.000000    0.00444444  15 t-inv F
 -0.533333  0.466667  0.000000    0.00444444  15 t-inv F
  0.533333 -0.466667  0.000000    0.00444444  15 t-inv F
 -0.133333 -0.133333  0.000000    0.00444444  16 t-inv F
 -0.133333  0.266667  0.000000    0.00444444  16 t-inv F
  0.133333 -0.266667  0.000000    0.00444444  16 t-inv F
 -0.266667  0.133333  0.000000    0.00444444  16 t-inv F
  0.266667 -0.133333  0.000000    0.00444444  16 t-inv F
 -0.200000 -0.133333  0.000000    0.00444444  17 t-inv F
 -0.133333  0.333333  0.000000    0.00444444  17 t-inv F
  0.133333 -0.333333  0.000000    0.00444444  17 t-inv F
 -0.333333  0.200000  0.000000    0.00444444  17 t-inv F
  0.333333 -0.200000  0.000000    0.00444444  17 t-inv F
  0.200000 -0.333333  0.000000    0.00444444  17 t-inv F
 -0.200000  0.333333  0.000000    0.00444444  17 t-inv F
 -0.133333 -0.200000  0.000000    0.00444444  17 t-inv F
  0.133333  0.200000  0.000000    0.00444444  17 t-inv F
 -0.333333  0.133333  0.000000    0.00444444  17 t-inv F
  0.333333 -0.133333  0.000000    0.00444444  17 t-inv F
 -0.266667 -0.133333  0.000000    0.00444444  18 t-inv F
 -0.133333  0.400000  0.000000    0.00444444  18 t-inv F
  0.133333 -0.400000  0.000000    0.00444444  18 t-inv F
 -0.400000  0.266667  0.000000    0.00444444  18 t-inv F
  0.400000 -0.266667  0.000000    0.00444444  18 t-inv F
  0.266667 -0.400000  0.000000    0.00444444  18 t-inv F
 -0.266667  0.400000  0.000000    0.00444444  18 t-inv F
 -0.133333 -0.266667  0.000000    0.00444444  18 t-inv F
  0.133333  0.266667  0.000000    0.00444444  18 t-inv F
 -0.400000  0.133333  0.000000    0.00444444  18 t-inv F
  0.400000 -0.133333  0.000000    0.00444444  18 t-inv F
 -0.333333 -0.133333  0.000000    0.00444444  19 t-inv F
 -0.133333  0.466667  0.000000    0.00444444  19 t-inv F
  0.133333 -0.466667  0.000000    0.00444444  19 t-inv F
 -0.466667  0.333333  0.000000    0.00444444  19 t-inv F
  0.466667 -0.333333  0.000000    0.00444444  19 t-inv F
  0.333333 -0.466667  0.000000    0.00444444  19 t-inv F
 -0.333333  0.466667  0.000000    0.00444444  19 t-inv F
 -0.133333 -0.333333  0.000000    0.00444444  19 t-inv F
  0.133333  0.333333  0.000000    0.00444444  19 t-inv F
 -0.466667  0.133333  0.000000    0.00444444  19 t-inv F
  0.466667 -0.133333  0.000000    0.00444444  19 t-inv F
 -0.400000 -0.133333  0.000000    0.00444444  20 t-inv F
 -0.133333  0.533333  0.000000    0.00444444  20 t-inv F
  0.133333 -0.533333  0.000000    0.00444444  20 t-inv F
 -0.533333  0.400000  0.000000    0.00444444  20 t-inv F
  0.533333 -0.400000  0.000000    0.00444444  20 t-inv F
  0.400000 -0.533333  0.000000    0.00444444  20 t-inv F
 -0.400000  0.533333  0.000000    0.00444444  20 t-inv F
 -0.133333 -0.400000  0.000000    0.00444444  20 t-inv F
  0.133333  0.400000  0.000000    0.00444444  20 t-inv F
 -0.533333  0.133333  0.000000    0.00444444  20 t-inv F
  0.533333 -0.133333  0.000000    0.00444444  20 t-inv F
 -0.200000 -0.200000  0.000000    0.00444444  21 t-inv F
 -0.200000  0.400000  0.000000    0.00444444  21 t-inv F
  0.200000 -0.400000  0.000000    0.00444444  21 t-inv F
 -0.400000  0.200000  0.000000    0.00444444  21 t-inv F
  0.400000 -0.200000  0.000000    0.00444444  21 t-inv F
 -0.266667 -0.200000  0.000000    0.00444444  22 t-inv F
 -0.200000  0.466667  0.000000    0.00444444  22 t-inv F
  0.200000 -0.466667  0.000000    0.00444444  22 t-inv F
 -0.466667  0.266667  0.000000    0.00444444  22 t-inv F
  0.466667 -0.266667  0.000000    0.00444444  22 t-inv F
  0.266667 -0.466667  0.000000    0.00444444  22 t-inv F
 -0.266667  0.466667  0.000000    0.00444444  22 t-inv F
 -0.200000 -0.266667  0.000000    0.00444444  22 t-inv F
  0.200000  0.266667  0.000000    0.00444444  22 t-inv F
 -0.466667  0.200000  0.000000    0.00444444  22 t-inv F
  0.466667 -0.200000  0.000000    0.00444444  22 t-inv F
 -0.333333 -0.200000  0.000000    0.00444444  23 t-inv F
 -0.200000  0.533333  0.000000    0.00444444  23 t-inv F
  0.200000 -0.533333  0.000000    0.00444444  23 t-inv F
 -0.533333  0.333333  0.000000    0.00444444  23 t-inv F
  0.533333 -0.333333  0.000000    0.00444444  23 t-inv F
  0.333333 -0.533333  0.000000    0.00444444  23 t-inv F
 -0.333333  0.533333  0.000000    0.00444444  23 t-inv F
 -0.200000 -0.333333  0.000000    0.00444444  23 t-inv F
  0.200000  0.333333  0.000000    0.00444444  23 t-inv F
 -0.533333  0.200000  0.000000    0.00444444  23 t-inv F
  0.533333 -0.200000  0.000000    0.00444444  23 t-inv F
 -0.400000 -0.200000  0.000000    0.00444444  24 t-inv F
 -0.200000  0.600000  0.000000    0.00444444  24 t-inv F
  0.200000 -0.600000  0.000000    0.00444444  24 t-inv F
 -0.600000  0.400000  0.000000    0.00444444  24 t-inv F
  0.600000 -0.400000  0.000000    0.00444444  24 t-inv F
 -0.266667 -0.266667  0.000000    0.00444444  25 t-inv F
 -0.266667  0.533333  0.000000    0.00444444  25 t-inv F
  0.266667 -0.533333  0.000000    0.00444444  25 t-inv F
 -0.533333  0.266667  0.000000    0.00444444  25 t-inv F
  0.533333 -0.266667  0.000000    0.00444444  25 t-inv F
 -0.333333 -0.266667  0.000000    0.00444444  26 t-inv F
 -0.266667  0.600000  0.000000    0.00444444  26 t-inv F
  0.266667 -0.600000  0.000000    0.00444444  26 t-inv F
 -0.600000  0.333333  0.000000    0.00444444  26 t-inv F
  0.600000 -0.333333  0.000000    0.00444444  26 t-inv F
  0.333333 -0.600000  0.000000    0.00444444  26 t-inv F
 -0.333333  0.600000  0.000000    0.00444444  26 t-inv F
 -0.266667 -0.333333  0.000000    0.00444444  26 t-inv F
  0.266667  0.333333  0.000000    0.00444444  26 t-inv F
 -0.600000  0.266667  0.000000    0.00444444  26 t-inv F
  0.600000 -0.266667  0.000000    0.00444444  26 t-inv F
 -0.333333 -0.333333  0.000000    0.00444444  27 t-inv F


--------------------------------------------------------------------------------------------------------




 Dimension of arrays:
   k-points           NKPTS =     27   k-points in BZ     NKDIM =     27   number of bands    NBANDS=     40
   number of dos      NEDOS =    301   number of ions     NIONS =      2
   non local maximal  LDIM  =      4   non local SUM 2l+1 LMDIM =      8
   total plane-waves  NPLWV =  72576
   max r-space proj   IRMAX =      1   max aug-charges    IRDMAX=   5611
   dimension x,y,z NGX =    18 NGY =   18 NGZ =  224
   dimension x,y,z NGXF=    36 NGYF=   36 NGZF=  448
   support grid    NGXF=    36 NGYF=   36 NGZF=  448
   ions per type =               2
   NGX,Y,Z   is equivalent  to a cutoff of  12.12, 12.12, 12.42 a.u.
   NGXF,Y,Z  is equivalent  to a cutoff of  24.25, 24.25, 24.83 a.u.

 SYSTEM =  TMN2                                    
 POSCAR =  Graphene                                

 Startparameter for this run:
   NWRITE =      2    write-flag & timer
   PREC   = accura    normal or accurate (medium, high low for compatibility)
   ISTART =      0    job   : 0-new  1-cont  2-samecut
   ICHARG =      2    charge: 1-file 2-atom 10-const
   ISPIN  =      1    spin polarized calculation?
   LNONCOLLINEAR =      F non collinear calculations
   LSORBIT =      F    spin-orbit coupling
   INIWAV =      1    electr: 0-lowe 1-rand  2-diag
   LASPH  =      F    aspherical Exc in radial PAW
   METAGGA=      F    non-selfconsistent MetaGGA calc.

 Electronic Relaxation 1
   ENCUT  =  500.0 eV  36.75 Ry    6.06 a.u.   4.50  4.50 54.69*2*pi/ulx,y,z
   ENINI  =  500.0     initial cutoff
   ENAUG  =  644.9 eV  augmentation charge cutoff
   NELM   =     60;   NELMIN=  2; NELMDL= -5     # of ELM steps 
   EDIFF  = 0.1E-04   stopping-criterion for ELM
   LREAL  =      F    real-space projection
   NLSPLINE    = F    spline interpolate recip. space projectors
   LCOMPAT=      F    compatible to vasp.4.4
   GGA_COMPAT  = T    GGA compatible to vasp.4.4-vasp.4.6
   LMAXPAW     = -100 max onsite density
   LMAXMIX     =    2 max onsite mixed and CHGCAR
   VOSKOWN=      0    Vosko Wilk Nusair interpolation
   ROPT   =    0.00000
 Ionic relaxation
   EDIFFG = -.1E-01   stopping-criterion for IOM
   NSW    =     61    number of steps for IOM
   NBLOCK =      1;   KBLOCK =     61    inner block; outer block 
   IBRION =      6    ionic relax: 0-MD 1-quasi-New 2-CG
   NFREE  =      2    steps in history (QN), initial steepest desc. (CG)
   ISIF   =      3    stress and relaxation
   IWAVPR =     11    prediction:  0-non 1-charg 2-wave 3-comb
   ISYM   =      2    0-nonsym 1-usesym 2-fastsym
   LCORR  =      T    Harris-Foulkes like correction to forces

   POTIM  = 0.2000    time-step for ionic-motion
   TEIN   =    0.0    initial temperature
   TEBEG  =    0.0;   TEEND  =   0.0 temperature during run
   SMASS  =  -3.00    Nose mass-parameter (am)
   estimated Nose-frequenzy (Omega)   =  0.10E-29 period in steps =****** mass=  -0.139E-27a.u.
   SCALEE = 1.0000    scale energy and forces
   NPACO  =    256;   APACO  = 16.0  distance and # of slots for P.C.
   PSTRESS=    0.0 pullay stress

  Mass of Ions in am
   POMASS =  12.01
  Ionic Valenz
   ZVAL   =   4.00
  Atomic Wigner-Seitz radii
   RWIGS  =  -1.00
  virtual crystal weights 
   VCA    =   1.00
   NELECT =       8.0000    total number of electrons
   NUPDOWN=      -1.0000    fix difference up-down

 DOS related values:
   EMIN   =  10.00;   EMAX   =-10.00  energy-range for DOS
   EFERMI =   0.00
   ISMEAR =     0;   SIGMA  =   0.10  broadening in eV -4-tet -1-fermi 0-gaus

 Electronic relaxation 2 (details)
   IALGO  =     68    algorithm
   LDIAG  =      T    sub-space diagonalisation (order eigenvalues)
   LSUBROT=      F    optimize rotation matrix (better conditioning)
   TURBO    =      0    0=normal 1=particle mesh
   IRESTART =      0    0=no restart 2=restart with 2 vectors
   NREBOOT  =      0    no. of reboots
   NMIN     =      0    reboot dimension
   EREF     =   0.00    reference energy to select bands
   IMIX   =      4    mixing-type and parameters
     AMIX     =   0.40;   BMIX     =  1.00
     AMIX_MAG =   1.60;   BMIX_MAG =  1.00
     AMIN     =   0.10
     WC   =   100.;   INIMIX=   1;  MIXPRE=   1;  MAXMIX= -45

 Intra band minimization:
   WEIMIN = 0.0010     energy-eigenvalue tresh-hold
   EBREAK =  0.63E-07  absolut break condition
   DEPER  =   0.30     relativ break condition  

   TIME   =   0.40     timestep for ELM

  volume/ion in A,a.u.               =      79.13       533.97
  Fermi-wavevector in a.u.,A,eV,Ry     =   0.605323  1.143894  4.985386  0.366416
  Thomas-Fermi vector in A             =   1.659004
 
 Write flags
   LWAVE        =      F    write WAVECAR
   LDOWNSAMPLE  =      F    k-point downsampling of WAVECAR
   LCHARG       =      F    write CHGCAR
   LVTOT        =      F    write LOCPOT, total local potential
   LVHAR        =      F    write LOCPOT, Hartree potential only
   LELF         =      F    write electronic localiz. function (ELF)
   LORBIT       =      0    0 simple, 1 ext, 2 COOP (PROOUT), +10 PAW based schemes


 Dipole corrections
   LMONO  =      F    monopole corrections only (constant potential shift)
   LDIPOL =      F    correct potential (dipole corrections)
   IDIPOL =      0    1-x, 2-y, 3-z, 4-all directions 
   EPSILON=  1.0000000 bulk dielectric constant

 Exchange correlation treatment:
   GGA     =    --    GGA type
   LEXCH   =     8    internal setting for exchange type
   VOSKOWN=      0    Vosko Wilk Nusair interpolation
   LHFCALC =     F    Hartree Fock is set to
   LHFONE  =     F    Hartree Fock one center treatment
   AEXX    =    0.0000 exact exchange contribution

 Linear response parameters
   LEPSILON=     F    determine dielectric tensor
   LRPA    =     F    only Hartree local field effects (RPA)
   LNABLA  =     F    use nabla operator in PAW spheres
   LVEL    =     F    velocity operator in full k-point grid
   LINTERFAST=   F  fast interpolation
   KINTER  =     0    interpolate to denser k-point grid
   CSHIFT  =0.1000    complex shift for real part using Kramers Kronig
   OMEGAMAX=  -1.0    maximum frequency
   DEG_THRESHOLD= 0.2000000E-02 threshold for treating states as degnerate
   RTIME   =   -0.100 relaxation time in fs
  (WPLASMAI=    0.000 imaginary part of plasma frequency in eV, 0.658/RTIME)
   DFIELD  = 0.0000000 0.0000000 0.0000000 field for delta impulse in time
 
 Orbital magnetization related:
   ORBITALMAG=     F  switch on orbital magnetization
   LCHIMAG   =     F  perturbation theory with respect to B field
   DQ        =  0.001000  dq finite difference perturbation B field
   LLRAUG    =     F  two centre corrections for induced B field



--------------------------------------------------------------------------------------------------------


 finite differences with symmetry
 charge density and potential will be updated during run
 non-spin polarized calculation
 RMM-DIIS sequential band-by-band and
  variant of blocked Davidson during initial phase
 perform sub-space diagonalisation
    before iterative eigenvector-optimisation
 modified Broyden-mixing scheme, WC =      100.0
 initial mixing is a Kerker type mixing with AMIX =  0.4000 and BMIX =      1.0000
 Hartree-type preconditioning will be used
 using additional bands           36
 reciprocal scheme for non local part
 use partial core corrections
 calculate Harris-corrections to forces 
   (improved forces if not selfconsistent)
 use gradient corrections 
 use of overlap-Matrix (Vanderbilt PP)
 Gauss-broadening in eV      SIGMA  =   0.10


--------------------------------------------------------------------------------------------------------


  energy-cutoff  :      500.00
  volume of cell :      158.25
      direct lattice vectors                 reciprocal lattice vectors
     2.468234109  0.000000000  0.000000000     0.405147954  0.233912293  0.000000000
    -1.234117093  2.137553397  0.000000000     0.000000000  0.467824571  0.000000000
     0.000000000  0.000000000 29.995100021     0.000000000  0.000000000  0.033338779

  length of vectors
     2.468234109  2.468234090 29.995100021     0.467824567  0.467824571  0.033338779


 
 k-points in units of 2pi/SCALE and weight: Automatic mesh                          
   0.00000000  0.00000000  0.00000000       0.004
   0.02700986  0.01559415  0.00000000       0.027
   0.05401973  0.03118831  0.00000000       0.027
   0.08102959  0.04678246  0.00000000       0.027
   0.10803945  0.06237661  0.00000000       0.027
   0.13504932  0.07797076  0.00000000       0.027
   0.16205918  0.09356492  0.00000000       0.027
   0.18906905  0.10915907  0.00000000       0.027
   0.02700986  0.04678246  0.00000000       0.027
   0.05401973  0.06237661  0.00000000       0.053
   0.08102959  0.07797076  0.00000000       0.053
   0.10803945  0.09356492  0.00000000       0.053
   0.13504932  0.10915907  0.00000000       0.053
   0.16205918  0.12475322  0.00000000       0.053
   0.18906905  0.14034737  0.00000000       0.027
   0.05401973  0.09356492  0.00000000       0.027
   0.08102959  0.10915907  0.00000000       0.053
   0.10803945  0.12475322  0.00000000       0.053
   0.13504932  0.14034737  0.00000000       0.053
   0.16205918  0.15594153  0.00000000       0.053
   0.08102959  0.14034737  0.00000000       0.027
   0.10803945  0.15594153  0.00000000       0.053
   0.13504932  0.17153568  0.00000000       0.053
   0.16205918  0.18712983  0.00000000       0.027
   0.10803945  0.18712983  0.00000000       0.027
   0.13504932  0.20272398  0.00000000       0.053
   0.13504932  0.23391229  0.00000000       0.009
 
 k-points in reciprocal lattice and weights: Automatic mesh                          
   0.00000000  0.00000000  0.00000000       0.004
   0.06666667  0.00000000  0.00000000       0.027
   0.13333333  0.00000000  0.00000000       0.027
   0.20000000  0.00000000  0.00000000       0.027
   0.26666667  0.00000000  0.00000000       0.027
   0.33333333  0.00000000  0.00000000       0.027
   0.40000000  0.00000000  0.00000000       0.027
   0.46666667  0.00000000  0.00000000       0.027
   0.06666667  0.06666667  0.00000000       0.027
   0.13333333  0.06666667  0.00000000       0.053
   0.20000000  0.06666667  0.00000000       0.053
   0.26666667  0.06666667  0.00000000       0.053
   0.33333333  0.06666667  0.00000000       0.053
   0.40000000  0.06666667  0.00000000       0.053
   0.46666667  0.06666667  0.00000000       0.027
   0.13333333  0.13333333  0.00000000       0.027
   0.20000000  0.13333333  0.00000000       0.053
   0.26666667  0.13333333  0.00000000       0.053
   0.33333333  0.13333333  0.00000000       0.053
   0.40000000  0.13333333  0.00000000       0.053
   0.20000000  0.20000000  0.00000000       0.027
   0.26666667  0.20000000  0.00000000       0.053
   0.33333333  0.20000000  0.00000000       0.053
   0.40000000  0.20000000  0.00000000       0.027
   0.26666667  0.26666667  0.00000000       0.027
   0.33333333  0.26666667  0.00000000       0.053
   0.33333333  0.33333333  0.00000000       0.009
 
 position of ions in fractional coordinates (direct lattice) 
   0.33333333  0.66666667  0.50000000
   0.66666664  0.33333333  0.50000000
 
 position of ions in cartesian coordinates  (Angst):
  -0.00000004  1.42503560 14.99755001
   1.23411699  0.71251780 14.99755001
 


--------------------------------------------------------------------------------------------------------


 k-point  1 :   0.0000 0.0000 0.0000  plane waves:    4063
 k-point  2 :   0.0667 0.0000 0.0000  plane waves:    4073
 k-point  3 :   0.1333 0.0000 0.0000  plane waves:    4066
 k-point  4 :   0.2000 0.0000 0.0000  plane waves:    4074
 k-point  5 :   0.2667 0.0000 0.0000  plane waves:    4066
 k-point  6 :   0.3333 0.0000 0.0000  plane waves:    4030
 k-point  7 :   0.4000 0.0000 0.0000  plane waves:    4002
 k-point  8 :   0.4667 0.0000 0.0000  plane waves:    3986
 k-point  9 :   0.0667 0.0667 0.0000  plane waves:    4065
 k-point 10 :   0.1333 0.0667 0.0000  plane waves:    4081
 k-point 11 :   0.2000 0.0667 0.0000  plane waves:    4071
 k-point 12 :   0.2667 0.0667 0.0000  plane waves:    4038
 k-point 13 :   0.3333 0.0667 0.0000  plane waves:    4009
 k-point 14 :   0.4000 0.0667 0.0000  plane waves:    3995
 k-point 15 :   0.4667 0.0667 0.0000  plane waves:    3980
 k-point 16 :   0.1333 0.1333 0.0000  plane waves:    4081
 k-point 17 :   0.2000 0.1333 0.0000  plane waves:    4047
 k-point 18 :   0.2667 0.1333 0.0000  plane waves:    4008
 k-point 19 :   0.3333 0.1333 0.0000  plane waves:    3988
 k-point 20 :   0.4000 0.1333 0.0000  plane waves:    3969
 k-point 21 :   0.2000 0.2000 0.0000  plane waves:    4019
 k-point 22 :   0.2667 0.2000 0.0000  plane waves:    3990
 k-point 23 :   0.3333 0.2000 0.0000  plane waves:    3971
 k-point 24 :   0.4000 0.2000 0.0000  plane waves:    3976
 k-point 25 :   0.2667 0.2667 0.0000  plane waves:    3964
 k-point 26 :   0.3333 0.2667 0.0000  plane waves:    3994
 k-point 27 :   0.3333 0.3333 0.0000  plane waves:    3990

 maximum and minimum number of plane-waves per node :      4081     3964

 maximum number of plane-waves:      4081
 maximum index in each direction: 
   IXMAX=    4   IYMAX=    4   IZMAX=   54
   IXMIN=   -4   IYMIN=   -4   IZMIN=  -54


 serial   3D FFT for wavefunctions
 parallel 3D FFT for charge:
    minimum data exchange during FFTs selected (reduces bandwidth)


 total amount of memory used by VASP MPI-rank0    43582. kBytes
=======================================================================

   base      :      30000. kBytes
   nonl-proj :       7251. kBytes
   fftplans  :        844. kBytes
   grid      :       3684. kBytes
   one-center:          6. kBytes
   wavefun   :       1797. kBytes
 
     INWAV:  cpu time    0.0000: real time    0.0000
 Broyden mixing: mesh for mixing (old mesh)
   NGX =  9   NGY =  9   NGZ =109
  (NGX  = 36   NGY  = 36   NGZ  =448)
  gives a total of   8829 points

 initial charge density was supplied:
 charge density of overlapping atoms calculated
 number of electron       8.0000000 magnetization 
 keeping initial charge density in first step


--------------------------------------------------------------------------------------------------------


 Maximum index for augmentation-charges            0 (set IRDMAX)


--------------------------------------------------------------------------------------------------------


 First call to EWALD:  gamma=   0.328
 Maximum number of real-space cells 6x 6x 1
 Maximum number of reciprocal cells 2x 2x13

    FEWALD:  cpu time    0.0032: real time    0.0092


--------------------------------------- Iteration      1(   1)  ---------------------------------------


    POTLOK:  cpu time    0.0184: real time    0.0359
    SETDIJ:  cpu time    0.0043: real time    0.0194
     EDDAV:  cpu time    0.5740: real time    0.6049
       DOS:  cpu time    0.0069: real time    0.0141
    --------------------------------------------
      LOOP:  cpu time    0.6036: real time    0.6743

 eigenvalue-minimisations  :  2160
 total energy-change (2. order) : 0.1087412E+02  (-0.3768728E+03)
 number of electron       8.0000000 magnetization 
 augmentation part        8.0000000 magnetization 

 Free energy of the ion-electron system (eV)
  ---------------------------------------------------
  alpha Z        PSCENC =         2.07633087
  Ewald energy   TEWEN  =      2206.09402460
  -Hartree energ DENC   =     -2412.67006098
  -exchange      EXHF   =         0.00000000
  -V(xc)+E(xc)   XCENC  =        26.34759818
  PAW double counting   =       217.04409276     -218.18290438
  entropy T*S    EENTRO =        -0.00000899
  eigenvalues    EBANDS =      -104.13179387
  atomic energy  EATOM  =       294.29684335
  Solvation  Ediel_sol  =         0.00000000
  ---------------------------------------------------
  free energy    TOTEN  =        10.87412154 eV

  energy without entropy =       10.87413053  energy(sigma->0) =       10.87412603


--------------------------------------------------------------------------------------------------------




--------------------------------------- Iteration      1(   2)  ---------------------------------------


     EDDAV:  cpu time    0.9215: real time    0.9278
       DOS:  cpu time    0.0004: real time    0.0003
    --------------------------------------------
      LOOP:  cpu time    0.9218: real time    0.9281

 eigenvalue-minimisations  :  3240
 total energy-change (2. order) :-0.3048620E+02  (-0.3048534E+02)
 number of electron       8.0000000 magnetization 
 augmentation part        8.0000000 magnetization 

 Free energy of the ion-electron system (eV)
  ---------------------------------------------------
  alpha Z        PSCENC =         2.07633087
  Ewald energy   TEWEN  =      2206.09402460
  -Hartree energ DENC   =     -2412.67006098
  -exchange      EXHF   =         0.00000000
  -V(xc)+E(xc)   XCENC  =        26.34759818
  PAW double counting   =       217.04409276     -218.18290438
  entropy T*S    EENTRO =        -0.00097592
  eigenvalues    EBANDS =      -134.61702841
  atomic energy  EATOM  =       294.29684335
  Solvation  Ediel_sol  =         0.00000000
  ---------------------------------------------------
  free energy    TOTEN  =       -19.61207993 eV

  energy without entropy =      -19.61110401  energy(sigma->0) =      -19.61159197


--------------------------------------------------------------------------------------------------------




--------------------------------------- Iteration      1(   3)  ---------------------------------------


     EDDAV:  cpu time    0.6105: real time    0.6138
       DOS:  cpu time    0.0003: real time    0.0003
    --------------------------------------------
      LOOP:  cpu time    0.6108: real time    0.6142

 eigenvalue-minimisations  :  2320
 total energy-change (2. order) :-0.9917962E-01  (-0.9915284E-01)
 number of electron       8.0000000 magnetization 
 augmentation part        8.0000000 magnetization 

 Free energy of the ion-electron system (eV)
  ---------------------------------------------------
  alpha Z        PSCENC =         2.07633087
  Ewald energy   TEWEN  =      2206.09402460
  -Hartree energ DENC   =     -2412.67006098
  -exchange      EXHF   =         0.00000000
  -V(xc)+E(xc)   XCENC  =        26.34759818
  PAW double counting   =       217.04409276     -218.18290438
  entropy T*S    EENTRO =        -0.00100300
  eigenvalues    EBANDS =      -134.71618094
  atomic energy  EATOM  =       294.29684335
  Solvation  Ediel_sol  =         0.00000000
  ---------------------------------------------------
  free energy    TOTEN  =       -19.71125955 eV

  energy without entropy =      -19.71025655  energy(sigma->0) =      -19.71075805


--------------------------------------------------------------------------------------------------------




--------------------------------------- Iteration      1(   4)  ---------------------------------------


     EDDAV:  cpu time    1.2669: real time    1.2700
       DOS:  cpu time    0.0004: real time    0.0003
    --------------------------------------------
      LOOP:  cpu time    1.2672: real time    1.2704

 eigenvalue-minimisations  :  4040
 total energy-change (2. order) :-0.2764759E-03  (-0.2764754E-03)
 number of electron       8.0000000 magnetization 
 augmentation part        8.0000000 magnetization 

 Free energy of the ion-electron system (eV)
  ---------------------------------------------------
  alpha Z        PSCENC =         2.07633087
  Ewald energy   TEWEN  =      2206.09402460
  -Hartree energ DENC   =     -2412.67006098
  -exchange      EXHF   =         0.00000000
  -V(xc)+E(xc)   XCENC  =        26.34759818
  PAW double counting   =       217.04409276     -218.18290438
  entropy T*S    EENTRO =        -0.00100300
  eigenvalues    EBANDS =      -134.71645742
  atomic energy  EATOM  =       294.29684335
  Solvation  Ediel_sol  =         0.00000000
  ---------------------------------------------------
  free energy    TOTEN  =       -19.71153602 eV

  energy without entropy =      -19.71053302  energy(sigma->0) =      -19.71103452


--------------------------------------------------------------------------------------------------------




--------------------------------------- Iteration      1(   5)  ---------------------------------------


     EDDAV:  cpu time    0.6086: real time    0.6100
       DOS:  cpu time    0.0003: real time    0.0003
    CHARGE:  cpu time    0.0427: real time    0.0619
    MIXING:  cpu time    0.0031: real time    0.0103
    --------------------------------------------
      LOOP:  cpu time    0.6547: real time    0.6825

 eigenvalue-minimisations  :  2320
 total energy-change (2. order) :-0.8924962E-07  (-0.8827663E-07)
 number of electron       7.9999997 magnetization 
 augmentation part        0.2133040 magnetization 

 Broyden mixing:
  rms(total) = 0.62954E+00    rms(broyden)= 0.62946E+00
  rms(prec ) = 0.64923E+00
  weight for this iteration     100.00

 Free energy of the ion-electron system (eV)
  ---------------------------------------------------
  alpha Z        PSCENC =         2.07633087
  Ewald energy   TEWEN  =      2206.09402460
  -Hartree energ DENC   =     -2412.67006098
  -exchange      EXHF   =         0.00000000
  -V(xc)+E(xc)   XCENC  =        26.34759818
  PAW double counting   =       217.04409276     -218.18290438
  entropy T*S    EENTRO =        -0.00100300
  eigenvalues    EBANDS =      -134.71645751
  atomic energy  EATOM  =       294.29684335
  Solvation  Ediel_sol  =         0.00000000
  ---------------------------------------------------
  free energy    TOTEN  =       -19.71153611 eV

  energy without entropy =      -19.71053311  energy(sigma->0) =      -19.71103461


--------------------------------------------------------------------------------------------------------




--------------------------------------- Iteration      1(   6)  ---------------------------------------


    POTLOK:  cpu time    0.0083: real time    0.0085
    SETDIJ:  cpu time    0.0011: real time    0.0011
    EDDIAG:  cpu time    0.2333: real time    0.3336
  RMM-DIIS:  cpu time    0.2511: real time    0.2520
    ORTHCH:  cpu time    0.0108: real time    0.0108
       DOS:  cpu time    0.0003: real time    0.0003
    CHARGE:  cpu time    0.0355: real time    0.0356
    MIXING:  cpu time    0.0015: real time    0.0038
    --------------------------------------------
      LOOP:  cpu time    0.5417: real time    0.6456

 eigenvalue-minimisations  :  2160
 total energy-change (2. order) : 0.9052212E+00  (-0.3183977E-01)
 number of electron       7.9999997 magnetization 
 augmentation part        0.2034999 magnetization 

 Broyden mixing:
  rms(total) = 0.36734E+00    rms(broyden)= 0.36734E+00
  rms(prec ) = 0.37746E+00
  weight for this iteration     100.00

 eigenvalues of (default mixing * dielectric matrix)
  average eigenvalue GAMMA=   2.2215
  2.2215

 Free energy of the ion-electron system (eV)
  ---------------------------------------------------
  alpha Z        PSCENC =         2.07633087
  Ewald energy   TEWEN  =      2206.09402460
  -Hartree energ DENC   =     -2423.98965653
  -exchange      EXHF   =         0.00000000
  -V(xc)+E(xc)   XCENC  =        26.82487284
  PAW double counting   =       398.43472641     -399.72454669
  entropy T*S    EENTRO =        -0.00100300
  eigenvalues    EBANDS =      -122.81790672
  atomic energy  EATOM  =       294.29684335
  Solvation  Ediel_sol  =         0.00000000
  ---------------------------------------------------
  free energy    TOTEN  =       -18.80631488 eV

  energy without entropy =      -18.80531187  energy(sigma->0) =      -18.80581338


--------------------------------------------------------------------------------------------------------




--------------------------------------- Iteration      1(   7)  ---------------------------------------


    POTLOK:  cpu time    0.0078: real time    0.0080
    SETDIJ:  cpu time    0.0010: real time    0.0010
    EDDIAG:  cpu time    0.1633: real time    0.1637
  RMM-DIIS:  cpu time    0.2519: real time    0.2525
    ORTHCH:  cpu time    0.0108: real time    0.0108
       DOS:  cpu time    0.0003: real time    0.0003
    CHARGE:  cpu time    0.0356: real time    0.0356
    MIXING:  cpu time    0.0005: real time    0.0005
    --------------------------------------------
      LOOP:  cpu time    0.4711: real time    0.4724

 eigenvalue-minimisations  :  2160
 total energy-change (2. order) : 0.3497479E+00  (-0.4829331E-01)
 number of electron       7.9999997 magnetization 
 augmentation part        0.1918885 magnetization 

 Broyden mixing:
  rms(total) = 0.90509E-01    rms(broyden)= 0.90466E-01
  rms(prec ) = 0.92263E-01
  weight for this iteration     100.00

 eigenvalues of (default mixing * dielectric matrix)
  average eigenvalue GAMMA=   2.3310
  2.3310  2.3310

 Free energy of the ion-electron system (eV)
  ---------------------------------------------------
  alpha Z        PSCENC =         2.07633087
  Ewald energy   TEWEN  =      2206.09402460
  -Hartree energ DENC   =     -2439.60168316
  -exchange      EXHF   =         0.00000000
  -V(xc)+E(xc)   XCENC  =        27.47679368
  PAW double counting   =       750.50670658     -751.93512646
  entropy T*S    EENTRO =        -0.00100300
  eigenvalues    EBANDS =      -107.36945348
  atomic energy  EATOM  =       294.29684335
  Solvation  Ediel_sol  =         0.00000000
  ---------------------------------------------------
  free energy    TOTEN  =       -18.45656702 eV

  energy without entropy =      -18.45556402  energy(sigma->0) =      -18.45606552


--------------------------------------------------------------------------------------------------------




--------------------------------------- Iteration      1(   8)  ---------------------------------------


    POTLOK:  cpu time    0.0079: real time    0.0081
    SETDIJ:  cpu time    0.0010: real time    0.0010
    EDDIAG:  cpu time    0.1658: real time    0.1670
  RMM-DIIS:  cpu time    0.2550: real time    0.2556
    ORTHCH:  cpu time    0.0110: real time    0.0110
       DOS:  cpu time    0.0003: real time    0.0003
    CHARGE:  cpu time    0.0355: real time    0.0355
    MIXING:  cpu time    0.0005: real time    0.0005
    --------------------------------------------
      LOOP:  cpu time    0.4770: real time    0.4792

 eigenvalue-minimisations  :  2160
 total energy-change (2. order) : 0.9096761E-02  (-0.4242200E-03)
 number of electron       7.9999997 magnetization 
 augmentation part        0.1921612 magnetization 

 Broyden mixing:
  rms(total) = 0.79507E-02    rms(broyden)= 0.79251E-02
  rms(prec ) = 0.12467E-01
  weight for this iteration     100.00

 eigenvalues of (default mixing * dielectric matrix)
  average eigenvalue GAMMA=   1.9677
  1.2056  2.5358  2.1617

 Free energy of the ion-electron system (eV)
  ---------------------------------------------------
  alpha Z        PSCENC =         2.07633087
  Ewald energy   TEWEN  =      2206.09402460
  -Hartree energ DENC   =     -2441.87012147
  -exchange      EXHF   =         0.00000000
  -V(xc)+E(xc)   XCENC  =        27.47666923
  PAW double counting   =       833.44487428     -834.81174078
  entropy T*S    EENTRO =        -0.00100300
  eigenvalues    EBANDS =      -105.15334734
  atomic energy  EATOM  =       294.29684335
  Solvation  Ediel_sol  =         0.00000000
  ---------------------------------------------------
  free energy    TOTEN  =       -18.44747026 eV

  energy without entropy =      -18.44646726  energy(sigma->0) =      -18.44696876


--------------------------------------------------------------------------------------------------------




--------------------------------------- Iteration      1(   9)  ---------------------------------------


    POTLOK:  cpu time    0.0079: real time    0.0081
    SETDIJ:  cpu time    0.0010: real time    0.0010
    EDDIAG:  cpu time    0.1652: real time    0.1657
  RMM-DIIS:  cpu time    0.2567: real time    0.2573
    ORTHCH:  cpu time    0.0110: real time    0.0110
       DOS:  cpu time    0.0003: real time    0.0003
    CHARGE:  cpu time    0.0354: real time    0.0355
    MIXING:  cpu time    0.0004: real time    0.0004
    --------------------------------------------
      LOOP:  cpu time    0.4779: real time    0.4794

 eigenvalue-minimisations  :  2160
 total energy-change (2. order) : 0.1163776E-02  (-0.2550027E-04)
 number of electron       7.9999997 magnetization 
 augmentation part        0.1920230 magnetization 

 Broyden mixing:
  rms(total) = 0.60371E-02    rms(broyden)= 0.60341E-02
  rms(prec ) = 0.99293E-02
  weight for this iteration     100.00

 eigenvalues of (default mixing * dielectric matrix)
  average eigenvalue GAMMA=   2.3454
  3.7665  0.9642  2.5441  2.1070

 Free energy of the ion-electron system (eV)
  ---------------------------------------------------
  alpha Z        PSCENC =         2.07633087
  Ewald energy   TEWEN  =      2206.09402460
  -Hartree energ DENC   =     -2442.92108313
  -exchange      EXHF   =         0.00000000
  -V(xc)+E(xc)   XCENC  =        27.49298909
  PAW double counting   =       837.25908760     -838.62699911
  entropy T*S    EENTRO =        -0.00100300
  eigenvalues    EBANDS =      -104.11649675
  atomic energy  EATOM  =       294.29684335
  Solvation  Ediel_sol  =         0.00000000
  ---------------------------------------------------
  free energy    TOTEN  =       -18.44630649 eV

  energy without entropy =      -18.44530348  energy(sigma->0) =      -18.44580499


--------------------------------------------------------------------------------------------------------




--------------------------------------- Iteration      1(  10)  ---------------------------------------


    POTLOK:  cpu time    0.0080: real time    0.0082
    SETDIJ:  cpu time    0.0010: real time    0.0010
    EDDIAG:  cpu time    0.1640: real time    0.1644
  RMM-DIIS:  cpu time    0.2551: real time    0.2557
    ORTHCH:  cpu time    0.0125: real time    0.0125
       DOS:  cpu time    0.0007: real time    0.0007
    CHARGE:  cpu time    0.0386: real time    0.0387
    MIXING:  cpu time    0.0005: real time    0.0005
    --------------------------------------------
      LOOP:  cpu time    0.4804: real time    0.4817

 eigenvalue-minimisations  :  2160
 total energy-change (2. order) : 0.1436345E-02  (-0.3505124E-04)
 number of electron       7.9999997 magnetization 
 augmentation part        0.1916969 magnetization 

 Broyden mixing:
  rms(total) = 0.25354E-02    rms(broyden)= 0.25312E-02
  rms(prec ) = 0.39482E-02
  weight for this iteration     100.00

 eigenvalues of (default mixing * dielectric matrix)
  average eigenvalue GAMMA=   2.3966
  4.4291  0.9810  2.5648  2.0681  1.9397

 Free energy of the ion-electron system (eV)
  ---------------------------------------------------
  alpha Z        PSCENC =         2.07633087
  Ewald energy   TEWEN  =      2206.09402460
  -Hartree energ DENC   =     -2446.20164037
  -exchange      EXHF   =         0.00000000
  -V(xc)+E(xc)   XCENC  =        27.52603023
  PAW double counting   =       833.87710930     -835.24538579
  entropy T*S    EENTRO =        -0.00100300
  eigenvalues    EBANDS =      -100.86717933
  atomic energy  EATOM  =       294.29684335
  Solvation  Ediel_sol  =         0.00000000
  ---------------------------------------------------
  free energy    TOTEN  =       -18.44487014 eV

  energy without entropy =      -18.44386714  energy(sigma->0) =      -18.44436864


--------------------------------------------------------------------------------------------------------




--------------------------------------- Iteration      1(  11)  ---------------------------------------


    POTLOK:  cpu time    0.0088: real time    0.0091
    SETDIJ:  cpu time    0.0011: real time    0.0011
    EDDIAG:  cpu time    0.1724: real time    0.1728
  RMM-DIIS:  cpu time    0.2540: real time    0.2547
    ORTHCH:  cpu time    0.0109: real time    0.0109
       DOS:  cpu time    0.0003: real time    0.0003
    CHARGE:  cpu time    0.0363: real time    0.0364
    MIXING:  cpu time    0.0005: real time    0.0005
    --------------------------------------------
      LOOP:  cpu time    0.4842: real time    0.4858

 eigenvalue-minimisations  :  2160
 total energy-change (2. order) :-0.4414727E-03  (-0.4069509E-05)
 number of electron       7.9999997 magnetization 
 augmentation part        0.1916717 magnetization 

 Broyden mixing:
  rms(total) = 0.12113E-02    rms(broyden)= 0.12105E-02
  rms(prec ) = 0.20557E-02
  weight for this iteration     100.00

 eigenvalues of (default mixing * dielectric matrix)
  average eigenvalue GAMMA=   2.5834
  5.8761  3.0175  2.5240  2.0976  1.0200  0.9650

 Free energy of the ion-electron system (eV)
  ---------------------------------------------------
  alpha Z        PSCENC =         2.07633087
  Ewald energy   TEWEN  =      2206.09402460
  -Hartree energ DENC   =     -2447.09034419
  -exchange      EXHF   =         0.00000000
  -V(xc)+E(xc)   XCENC  =        27.52734074
  PAW double counting   =       834.14689904     -835.51395738
  entropy T*S    EENTRO =        -0.00100300
  eigenvalues    EBANDS =       -99.98144563
  atomic energy  EATOM  =       294.29684335
  Solvation  Ediel_sol  =         0.00000000
  ---------------------------------------------------
  free energy    TOTEN  =       -18.44531162 eV

  energy without entropy =      -18.44430861  energy(sigma->0) =      -18.44481011


--------------------------------------------------------------------------------------------------------




--------------------------------------- Iteration      1(  12)  ---------------------------------------


    POTLOK:  cpu time    0.0080: real time    0.0082
    SETDIJ:  cpu time    0.0010: real time    0.0010
    EDDIAG:  cpu time    0.1676: real time    0.1681
  RMM-DIIS:  cpu time    0.2466: real time    0.2493
    ORTHCH:  cpu time    0.0114: real time    0.0114
       DOS:  cpu time    0.0003: real time    0.0003
    CHARGE:  cpu time    0.0355: real time    0.0355
    MIXING:  cpu time    0.0005: real time    0.0005
    --------------------------------------------
      LOOP:  cpu time    0.4708: real time    0.4743

 eigenvalue-minimisations  :  2080
 total energy-change (2. order) :-0.5538357E-03  (-0.9644362E-06)
 number of electron       7.9999997 magnetization 
 augmentation part        0.1916573 magnetization 

 Broyden mixing:
  rms(total) = 0.78612E-03    rms(broyden)= 0.78598E-03
  rms(prec ) = 0.11714E-02
  weight for this iteration     100.00

 eigenvalues of (default mixing * dielectric matrix)
  average eigenvalue GAMMA=   3.0110
  7.3725  4.4784  2.7147  2.4366  2.0862  0.9942  0.9942

 Free energy of the ion-electron system (eV)
  ---------------------------------------------------
  alpha Z        PSCENC =         2.07633087
  Ewald energy   TEWEN  =      2206.09402460
  -Hartree energ DENC   =     -2447.62503160
  -exchange      EXHF   =         0.00000000
  -V(xc)+E(xc)   XCENC  =        27.52756919
  PAW double counting   =       833.92973380     -835.29646444
  entropy T*S    EENTRO =        -0.00100300
  eigenvalues    EBANDS =       -99.44786821
  atomic energy  EATOM  =       294.29684335
  Solvation  Ediel_sol  =         0.00000000
  ---------------------------------------------------
  free energy    TOTEN  =       -18.44586545 eV

  energy without entropy =      -18.44486245  energy(sigma->0) =      -18.44536395


--------------------------------------------------------------------------------------------------------




--------------------------------------- Iteration      1(  13)  ---------------------------------------


    POTLOK:  cpu time    0.0078: real time    0.0090
    SETDIJ:  cpu time    0.0011: real time    0.0011
    EDDIAG:  cpu time    0.1628: real time    0.1638
  RMM-DIIS:  cpu time    0.2560: real time    0.2567
    ORTHCH:  cpu time    0.0262: real time    0.0263
       DOS:  cpu time    0.0003: real time    0.0003
    CHARGE:  cpu time    0.0363: real time    0.0363
    MIXING:  cpu time    0.0035: real time    0.0035
    --------------------------------------------
      LOOP:  cpu time    0.4939: real time    0.4970

 eigenvalue-minimisations  :  2073
 total energy-change (2. order) :-0.7404510E-03  (-0.3407223E-05)
 number of electron       7.9999997 magnetization 
 augmentation part        0.1916646 magnetization 

 Broyden mixing:
  rms(total) = 0.33752E-03    rms(broyden)= 0.33751E-03
  rms(prec ) = 0.42427E-03
  weight for this iteration     100.00

 eigenvalues of (default mixing * dielectric matrix)
  average eigenvalue GAMMA=   2.8000
  7.6886  4.2319  2.6713  2.5598  2.0998  0.9858  1.0491  1.1138

 Free energy of the ion-electron system (eV)
  ---------------------------------------------------
  alpha Z        PSCENC =         2.07633087
  Ewald energy   TEWEN  =      2206.09402460
  -Hartree energ DENC   =     -2447.88669742
  -exchange      EXHF   =         0.00000000
  -V(xc)+E(xc)   XCENC  =        27.52671073
  PAW double counting   =       834.20969901     -835.57668975
  entropy T*S    EENTRO =        -0.00100300
  eigenvalues    EBANDS =       -99.18582430
  atomic energy  EATOM  =       294.29684335
  Solvation  Ediel_sol  =         0.00000000
  ---------------------------------------------------
  free energy    TOTEN  =       -18.44660590 eV

  energy without entropy =      -18.44560290  energy(sigma->0) =      -18.44610440


--------------------------------------------------------------------------------------------------------




--------------------------------------- Iteration      1(  14)  ---------------------------------------


    POTLOK:  cpu time    0.0103: real time    0.0105
    SETDIJ:  cpu time    0.0011: real time    0.0011
    EDDIAG:  cpu time    0.2811: real time    0.2834
  RMM-DIIS:  cpu time    0.2470: real time    0.2476
    ORTHCH:  cpu time    0.0108: real time    0.0108
       DOS:  cpu time    0.0003: real time    0.0003
    CHARGE:  cpu time    0.0360: real time    0.0406
    MIXING:  cpu time    0.0005: real time    0.0005
    --------------------------------------------
      LOOP:  cpu time    0.5872: real time    0.5949

 eigenvalue-minimisations  :  2018
 total energy-change (2. order) :-0.5096704E-04  (-0.5260072E-07)
 number of electron       7.9999997 magnetization 
 augmentation part        0.1916517 magnetization 

 Broyden mixing:
  rms(total) = 0.26285E-03    rms(broyden)= 0.26283E-03
  rms(prec ) = 0.31830E-03
  weight for this iteration     100.00

 eigenvalues of (default mixing * dielectric matrix)
  average eigenvalue GAMMA=   3.0181
  8.4497  5.0474  3.5671  2.0947  2.6593  2.4391  1.0045  0.9858  0.9154

 Free energy of the ion-electron system (eV)
  ---------------------------------------------------
  alpha Z        PSCENC =         2.07633087
  Ewald energy   TEWEN  =      2206.09402460
  -Hartree energ DENC   =     -2447.96615015
  -exchange      EXHF   =         0.00000000
  -V(xc)+E(xc)   XCENC  =        27.52761218
  PAW double counting   =       833.72177513     -835.08901926
  entropy T*S    EENTRO =        -0.00100300
  eigenvalues    EBANDS =       -99.10707059
  atomic energy  EATOM  =       294.29684335
  Solvation  Ediel_sol  =         0.00000000
  ---------------------------------------------------
  free energy    TOTEN  =       -18.44665687 eV

  energy without entropy =      -18.44565387  energy(sigma->0) =      -18.44615537


--------------------------------------------------------------------------------------------------------




--------------------------------------- Iteration      1(  15)  ---------------------------------------


    POTLOK:  cpu time    0.0079: real time    0.0079
    SETDIJ:  cpu time    0.0011: real time    0.0011
    EDDIAG:  cpu time    0.1625: real time    0.1628
  RMM-DIIS:  cpu time    0.2479: real time    0.2485
    ORTHCH:  cpu time    0.0107: real time    0.0108
       DOS:  cpu time    0.0003: real time    0.0003
    CHARGE:  cpu time    0.0359: real time    0.0360
    MIXING:  cpu time    0.0006: real time    0.0006
    --------------------------------------------
      LOOP:  cpu time    0.4668: real time    0.4680

 eigenvalue-minimisations  :  1994
 total energy-change (2. order) :-0.7613406E-04  (-0.1318245E-06)
 number of electron       7.9999997 magnetization 
 augmentation part        0.1916526 magnetization 

 Broyden mixing:
  rms(total) = 0.86760E-04    rms(broyden)= 0.86759E-04
  rms(prec ) = 0.11255E-03
  weight for this iteration     100.00

 eigenvalues of (default mixing * dielectric matrix)
  average eigenvalue GAMMA=   3.1432
  8.4095  6.2581  3.3923  3.3923  2.5947  2.0951  2.3375  0.9906  0.9906  0.9713

 Free energy of the ion-electron system (eV)
  ---------------------------------------------------
  alpha Z        PSCENC =         2.07633087
  Ewald energy   TEWEN  =      2206.09402460
  -Hartree energ DENC   =     -2447.99643025
  -exchange      EXHF   =         0.00000000
  -V(xc)+E(xc)   XCENC  =        27.52738316
  PAW double counting   =       833.86460101     -835.23165288
  entropy T*S    EENTRO =        -0.00100300
  eigenvalues    EBANDS =       -99.07682985
  atomic energy  EATOM  =       294.29684335
  Solvation  Ediel_sol  =         0.00000000
  ---------------------------------------------------
  free energy    TOTEN  =       -18.44673300 eV

  energy without entropy =      -18.44573000  energy(sigma->0) =      -18.44623150


--------------------------------------------------------------------------------------------------------




--------------------------------------- Iteration      1(  16)  ---------------------------------------


    POTLOK:  cpu time    0.0080: real time    0.0080
    SETDIJ:  cpu time    0.0011: real time    0.0011
    EDDIAG:  cpu time    0.1642: real time    0.1646
  RMM-DIIS:  cpu time    0.2469: real time    0.2478
    ORTHCH:  cpu time    0.0107: real time    0.0108
       DOS:  cpu time    0.0003: real time    0.0003
    CHARGE:  cpu time    0.0359: real time    0.0360
    MIXING:  cpu time    0.0006: real time    0.0006
    --------------------------------------------
      LOOP:  cpu time    0.4676: real time    0.4691

 eigenvalue-minimisations  :  1969
 total energy-change (2. order) :-0.1326136E-04  (-0.1134139E-07)
 number of electron       7.9999997 magnetization 
 augmentation part        0.1916563 magnetization 

 Broyden mixing:
  rms(total) = 0.37321E-04    rms(broyden)= 0.37315E-04
  rms(prec ) = 0.56720E-04
  weight for this iteration     100.00

 eigenvalues of (default mixing * dielectric matrix)
  average eigenvalue GAMMA=   3.0434
  8.8331  5.7050  4.5557  2.7366  2.7366  2.4993  2.1002  0.9896  0.9878  0.9878
  1.3451

 Free energy of the ion-electron system (eV)
  ---------------------------------------------------
  alpha Z        PSCENC =         2.07633087
  Ewald energy   TEWEN  =      2206.09402460
  -Hartree energ DENC   =     -2447.98662701
  -exchange      EXHF   =         0.00000000
  -V(xc)+E(xc)   XCENC  =        27.52701610
  PAW double counting   =       833.95687565     -835.32390333
  entropy T*S    EENTRO =        -0.00100300
  eigenvalues    EBANDS =       -99.08630349
  atomic energy  EATOM  =       294.29684335
  Solvation  Ediel_sol  =         0.00000000
  ---------------------------------------------------
  free energy    TOTEN  =       -18.44674627 eV

  energy without entropy =      -18.44574326  energy(sigma->0) =      -18.44624476


--------------------------------------------------------------------------------------------------------




--------------------------------------- Iteration      1(  17)  ---------------------------------------


    POTLOK:  cpu time    0.0081: real time    0.0082
    SETDIJ:  cpu time    0.0011: real time    0.0011
    EDDIAG:  cpu time    0.1625: real time    0.1629
  RMM-DIIS:  cpu time    0.2444: real time    0.2450
    ORTHCH:  cpu time    0.0108: real time    0.0108
       DOS:  cpu time    0.0003: real time    0.0003
    --------------------------------------------
      LOOP:  cpu time    0.4273: real time    0.4283

 eigenvalue-minimisations  :  1884
 total energy-change (2. order) :-0.3254256E-05  (-0.2522529E-10)
 number of electron       7.9999997 magnetization 
 augmentation part        0.1916563 magnetization 

 Free energy of the ion-electron system (eV)
  ---------------------------------------------------
  alpha Z        PSCENC =         2.07633087
  Ewald energy   TEWEN  =      2206.09402460
  -Hartree energ DENC   =     -2448.00553987
  -exchange      EXHF   =         0.00000000
  -V(xc)+E(xc)   XCENC  =        27.52717146
  PAW double counting   =       833.95736305     -835.32439388
  entropy T*S    EENTRO =        -0.00100300
  eigenvalues    EBANDS =       -99.06754609
  atomic energy  EATOM  =       294.29684335
  Solvation  Ediel_sol  =         0.00000000
  ---------------------------------------------------
  free energy    TOTEN  =       -18.44674952 eV

  energy without entropy =      -18.44574652  energy(sigma->0) =      -18.44624802


--------------------------------------------------------------------------------------------------------




 average (electrostatic) potential at core
  the test charge radii are     0.6991
  (the norm of the test charge is              1.0000)
       1 -58.6978       2 -58.6978
 
 
 
 E-fermi :  -3.2592     XC(G=0):  -1.5075     alpha+bet : -1.2666


 k-point     1 :       0.0000    0.0000    0.0000
  band No.  band energies     occupation 
      1     -22.7498      2.00000
      2     -10.8557      2.00000
      3      -6.2885      2.00000
      4      -6.2885      2.00000
      5       0.0175      0.00000
      6       0.7680      0.00000
      7       0.9406      0.00000
      8       1.2141      0.00000
      9       1.5395      0.00000
     10       2.1965      0.00000
     11       2.4394      0.00000
     12       3.4291      0.00000
     13       3.7872      0.00000
     14       5.0448      0.00000
     15       5.0448      0.00000
     16       5.0618      0.00000
     17       5.4956      0.00000
     18       7.0381      0.00000
     19       7.5580      0.00000
     20       8.1266      0.00000
     21       9.1803      0.00000
     22       9.3720      0.00000
     23       9.9619      0.00000
     24      12.0294      0.00000
     25      12.7282      0.00000
     26      15.0344      0.00000
     27      15.8417      0.00000
     28      18.3336      0.00000
     29      19.1979      0.00000
     30      19.2994      0.00000
     31      21.9072      0.00000
     32      23.0908      0.00000
     33      24.8906      0.00000
     34      24.8906      0.00000
     35      25.5913      0.00000
     36      27.2229      0.00000
     37      28.3028      0.00000
     38      28.3028      0.00000
     39      28.7499      0.00000
     40      31.8949      0.00000

 k-point     2 :       0.0667    0.0000    0.0000
  band No.  band energies     occupation 
      1     -22.6449      2.00000
      2     -10.7306      2.00000
      3      -6.7128      2.00000
      4      -6.5099      2.00000
      5       0.1598      0.00000
      6       0.9126      0.00000
      7       1.0869      0.00000
      8       1.3596      0.00000
      9       1.6853      0.00000
     10       2.3417      0.00000
     11       2.5843      0.00000
     12       3.5737      0.00000
     13       3.9308      0.00000
     14       5.0924      0.00000
     15       5.2056      0.00000
     16       5.4943      0.00000
     17       5.6445      0.00000
     18       7.1807      0.00000
     19       7.7034      0.00000
     20       7.7644      0.00000
     21       9.3723      0.00000
     22       9.5128      0.00000
     23      10.1066      0.00000
     24      12.1673      0.00000
     25      12.8723      0.00000
     26      15.1664      0.00000
     27      15.9852      0.00000
     28      18.4490      0.00000
     29      19.4368      0.00000
     30      19.5383      0.00000
     31      21.9361      0.00000
     32      23.2324      0.00000
     33      23.8322      0.00000
     34      23.9837      0.00000
     35      25.6347      0.00000
     36      27.3626      0.00000
     37      27.5695      0.00000
     38      28.4618      0.00000
     39      29.4518      0.00000
     40      30.0364      0.00000

 k-point     3 :       0.1333    0.0000    0.0000
  band No.  band energies     occupation 
      1     -22.3309      2.00000
      2     -10.3574      2.00000
      3      -7.8396      2.00000
      4      -7.0711      2.00000
      5       0.5866      0.00000
      6       1.3459      0.00000
      7       1.5255      0.00000
      8       1.7960      0.00000
      9       2.1227      0.00000
     10       2.7769      0.00000
     11       3.0191      0.00000
     12       4.0069      0.00000
     13       4.3603      0.00000
     14       5.1102      0.00000
     15       5.6361      0.00000
     16       6.0813      0.00000
     17       6.7319      0.00000
     18       6.7565      0.00000
     19       7.6088      0.00000
     20       8.1377      0.00000
     21       9.9340      0.00000
     22       9.9946      0.00000
     23      10.5400      0.00000
     24      12.5769      0.00000
     25      13.3032      0.00000
     26      15.5494      0.00000
     27      16.4127      0.00000
     28      18.7202      0.00000
     29      19.8446      0.00000
     30      20.3875      0.00000
     31      21.0757      0.00000
     32      22.5113      0.00000
     33      22.8688      0.00000
     34      23.6599      0.00000
     35      24.8070      0.00000
     36      25.6479      0.00000
     37      25.6753      0.00000
     38      25.9256      0.00000
     39      26.2715      0.00000
     40      26.3694      0.00000

 k-point     4 :       0.2000    0.0000    0.0000
  band No.  band energies     occupation 
      1     -21.8102      2.00000
      2      -9.7432      2.00000
      3      -9.3846      2.00000
      4      -7.7729      2.00000
      5       1.2975      0.00000
      6       2.0657      0.00000
      7       2.2565      0.00000
      8       2.5225      0.00000
      9       2.8514      0.00000
     10       3.5005      0.00000
     11       3.7426      0.00000
     12       4.7212      0.00000
     13       4.9132      0.00000
     14       5.1351      0.00000
     15       5.2845      0.00000
     16       6.3582      0.00000
     17       6.8017      0.00000
     18       8.3187      0.00000
     19       8.5304      0.00000
     20       8.8574      0.00000
     21      10.6295      0.00000
     22      10.9923      0.00000
     23      11.2646      0.00000
     24      13.2411      0.00000
     25      14.0173      0.00000
     26      16.1026      0.00000
     27      17.1179      0.00000
     28      18.3925      0.00000
     29      20.0689      0.00000
     30      20.3545      0.00000
     31      20.6697      0.00000
     32      21.1602      0.00000
     33      21.9682      0.00000
     34      22.0499      0.00000
     35      22.2127      0.00000
     36      22.4578      0.00000
     37      22.7334      0.00000
     38      23.2014      0.00000
     39      23.6338      0.00000
     40      23.7828      0.00000

 k-point     5 :       0.2667    0.0000    0.0000
  band No.  band energies     occupation 
      1     -21.0870      2.00000
      2     -11.1132      2.00000
      3      -8.9029      2.00000
      4      -8.4559      2.00000
      5       2.2901      0.00000
      6       3.0326      0.00000
      7       3.2797      0.00000
      8       3.4621      0.00000
      9       3.6240      0.00000
     10       3.8704      0.00000
     11       4.5267      0.00000
     12       4.6435      0.00000
     13       4.8126      0.00000
     14       5.7432      0.00000
     15       6.1107      0.00000
     16       7.3580      0.00000
     17       7.8085      0.00000
     18       9.3046      0.00000
     19       9.8610      0.00000
     20      10.6717      0.00000
     21      11.5818      0.00000
     22      12.0707      0.00000
     23      12.2785      0.00000
     24      14.0817      0.00000
     25      15.0090      0.00000
     26      16.1337      0.00000
     27      17.6206      0.00000
     28      17.8684      0.00000
     29      18.1172      0.00000
     30      18.6473      0.00000
     31      18.7372      0.00000
     32      19.2481      0.00000
     33      19.2488      0.00000
     34      20.0470      0.00000
     35      20.0670      0.00000
     36      20.1245      0.00000
     37      20.8390      0.00000
     38      21.3378      0.00000
     39      21.5628      0.00000
     40      21.6726      0.00000

 k-point     6 :       0.3333    0.0000    0.0000
  band No.  band energies     occupation 
      1     -20.1689      2.00000
      2     -12.8739      2.00000
      3      -9.0240      2.00000
      4      -7.8699      2.00000
      5       1.6361      0.00000
      6       3.5543      0.00000
      7       4.3849      0.00000
      8       4.4311      0.00000
      9       4.5983      0.00000
     10       4.8537      0.00000
     11       5.1880      0.00000
     12       5.8237      0.00000
     13       6.0716      0.00000
     14       7.0346      0.00000
     15       7.4076      0.00000
     16       8.6353      0.00000
[...]
    FORLOC:  cpu time    0.0004: real time    0.0004
    FORNL :  cpu time    0.0180: real time    0.0181
    STRESS:  cpu time    0.2575: real time    0.2909
    FORCOR:  cpu time    0.0072: real time    0.0098
    FORHAR:  cpu time    0.0019: real time    0.0038
    MIXING:  cpu time    0.0004: real time    0.0016
    OFIELD:  cpu time    0.0000: real time    0.0000

  FORCE on cell =-STRESS in cart. coord.  units (eV):
  Direction    XX          YY          ZZ          XY          YZ          ZX
  --------------------------------------------------------------------------------------
  Alpha Z     2.07633     2.07633     2.07633
  Ewald    2474.66556  2474.66556 -2743.27501    -0.00001     0.00000     0.00000
  Hartree  2436.63883  2436.63883 -2425.29796    -0.00000     0.00000    -0.00000
  E(xc)     -29.69166   -29.69166   -30.80438    -0.00000    -0.00000     0.00000
  Local   -4995.74305 -4995.74306  5067.18773    -0.00001    -0.00000     0.00000
  n-local    -6.84050    -7.37180    -6.49042    -0.31795    -0.00331    -0.00836
  augment    -0.77634    -0.77634    -0.71635     0.00001    -0.00000     0.00000
  Kinetic   117.93581   121.94612   137.30515     3.15543    -0.04502    -0.16176
  Fock        0.00000     0.00000     0.00000     0.00000     0.00000     0.00000
  -------------------------------------------------------------------------------------
  Total       0.00448     0.00448    -0.01490    -0.00000     0.00000     0.00000
  in kB       0.04537     0.04537    -0.15086    -0.00000     0.00000     0.00000
  external pressure =       -0.02 kB  Pullay stress =        0.00 kB


 VOLUME and BASIS-vectors are now :
 -----------------------------------------------------------------------------
  energy-cutoff  :      500.00
  volume of cell :      158.25
      direct lattice vectors                 reciprocal lattice vectors
     2.468234109  0.000000000  0.000000000     0.405147954  0.233912293  0.000000000
    -1.234117093  2.137553397  0.000000000     0.000000000  0.467824571  0.000000000
     0.000000000  0.000000000 29.995100021     0.000000000  0.000000000  0.033338779

  length of vectors
     2.468234109  2.468234090 29.995100021     0.467824567  0.467824571  0.033338779


 FORCES acting on ions
    electron-ion (+dipol)            ewald-force                    non-local-force                 convergence-correction
 -----------------------------------------------------------------------------------------------
   0.109E-05 0.213E-05 0.489E+01   -.275E-05 -.506E-05 -.505E+01   -.278E-16 -.555E-16 0.404E+00   -.670E-07 -.200E-08 0.212E-01
   0.129E-04 -.211E-05 -.489E+01   0.275E-05 0.506E-05 0.505E+01   0.000E+00 0.555E-16 -.404E+00   0.440E-07 0.195E-08 0.202E-01
 -----------------------------------------------------------------------------------------------
   0.140E-04 0.188E-07 0.598E-05   0.115E-13 0.885E-14 0.000E+00   -.278E-16 0.000E+00 0.000E+00   -.230E-07 -.524E-10 0.414E-01
 
 
 POSITION                                       TOTAL-FORCE (eV/Angst)
 -----------------------------------------------------------------------------------
     -0.00000      1.42504     14.98255        -0.000000      0.000000      0.251652
      1.23412      0.71252     14.99755         0.000000      0.000000     -0.251652
 -----------------------------------------------------------------------------------
    total drift:                                0.000014      0.000000      0.041411


--------------------------------------------------------------------------------------------------------



  FREE ENERGIE OF THE ION-ELECTRON SYSTEM (eV)
  ---------------------------------------------------
  free  energy   TOTEN  =       -18.44486564 eV

  energy  without entropy=      -18.44386264  energy(sigma->0) =      -18.44436414
 
 d Force =-0.2559185E-05[-0.755E-02, 0.754E-02]  d Energy = 0.6266972E-06-0.319E-05
 d Force =-0.3082105E-07[ 0.151E+00,-0.151E+00]  d Ewald  =-0.3082869E-07 0.773E-11


--------------------------------------------------------------------------------------------------------


    POTLOK:  cpu time    0.0076: real time    0.0162


--------------------------------------------------------------------------------------------------------


 Finite differences progress:
  Degree of freedom:   8/  8
  Displacement:        2/  2
  Total:              16/ 16


--------------------------------------------------------------------------------------------------------



  ELASTIC MODULI  (kBar)
 Direction    XX          YY          ZZ          XY          YZ          ZX
 --------------------------------------------------------------------------------
 XX        1144.4330    229.6370     19.2609     -0.0000      0.0000      0.0000
 YY         231.8468   1146.4415      3.9549     -0.0000      0.0000      0.0000
 ZZ           0.2198      0.2198      1.8781     -0.0000     -0.0000     -0.0000
 XY           0.2847      0.2940    -19.7601    455.8388      0.0000      0.0000
 YZ          -0.0911      0.0993      0.3537     -0.0000      0.0339     -0.0000
 ZX           0.0930     -0.0058     -0.0743      0.0000      0.0000     -0.0069
 --------------------------------------------------------------------------------


  SYMMETRIZED ELASTIC MODULI (kBar)
 Direction    XX          YY          ZZ          XY          YZ          ZX
 --------------------------------------------------------------------------------
 XX        1144.6829    231.4963      5.9139     -0.0000     -0.0000      0.0000
 YY         231.4963   1144.6828      5.9139     -0.0000      0.0000      0.0000
 ZZ           5.9139      5.9139      1.8781     -0.0000     -0.0000     -0.0000
 XY          -0.0000     -0.0000     -0.0000    456.5932     -0.0000      0.0000
 YZ           0.0000      0.0000     -0.0000     -0.0000      0.0136     -0.0000
 ZX           0.0000     -0.0000     -0.0000      0.0000     -0.0000      0.0135
 --------------------------------------------------------------------------------

 INTERNAL STRAIN TENSORS FROM STRAINED CELLS
 ============================================

 INTERNAL STRAIN TENSOR FOR ION    1 for displacements in x,y,z  (eV/Angst):
          X           Y           Z          XY          YZ          ZX
  --------------------------------------------------------------------------------
  x     0.00000    -0.00000    -0.00000    -6.26160    -0.00000     0.00000
  y    -6.37658     6.43380     0.00000     0.00036     0.00237    -0.00221
  z     0.00000     0.00000    -0.00000     0.00000     0.00061    -0.00000

 INTERNAL STRAIN TENSOR FOR ION    2 for displacements in x,y,z  (eV/Angst):
          X           Y           Z          XY          YZ          ZX
  --------------------------------------------------------------------------------
  x    -0.00000     0.00000     0.00000     6.26160     0.00000    -0.00000
  y     6.37658    -6.43380    -0.00000    -0.00036    -0.00237     0.00221
  z     0.00000     0.00000     0.00000     0.00000    -0.00061     0.00000
 
 INTERNAL STRAIN TENSORS FROM DISPLACED ATOMS
 ============================================

 INTERNAL STRAIN TENSOR FOR ION    1 for displacements in x,y,z  (eV/Angst):
          X           Y           Z          XY          YZ          ZX
  --------------------------------------------------------------------------------
  x     0.00000    -0.00000     0.00000    -7.06765     0.00000     0.00000
  y    -7.06765     7.06765    -0.00000    -0.00000     0.00000     0.00000
  z     0.00000     0.00000     0.00000     0.00000     0.00000     0.00000

 INTERNAL STRAIN TENSOR FOR ION    2 for displacements in x,y,z  (eV/Angst):
          X           Y           Z          XY          YZ          ZX
  --------------------------------------------------------------------------------
  x    -0.00000     0.00000    -0.00000     7.06765     0.00000     0.00000
  y     7.06765    -7.06765     0.00000     0.00000     0.00000     0.00000
  z     0.00000     0.00000     0.00000     0.00000     0.00000     0.00000


--------------------------------------------------------------------------------------------------------


 
 Eigenvectors and eigenvalues of the dynamical matrix
 ----------------------------------------------------
 
 
   1 f  =   44.437342 THz   279.208054 2PiTHz 1482.270130 cm-1   183.778140 meV
             X         Y         Z           dx          dy          dz
     -0.000000  1.425036 14.997550     0.660990   -0.251182   -0.000000  
      1.234117  0.712518 14.997550    -0.660990    0.251182   -0.000000  
 
   2 f  =   44.437341 THz   279.208046 2PiTHz 1482.270089 cm-1   183.778135 meV
             X         Y         Z           dx          dy          dz
     -0.000000  1.425036 14.997550     0.251182    0.660990    0.000000  
      1.234117  0.712518 14.997550    -0.251182   -0.660990    0.000000  
 
   3 f  =   26.125072 THz   164.148670 2PiTHz  871.438584 cm-1   108.044653 meV
             X         Y         Z           dx          dy          dz
     -0.000000  1.425036 14.997550    -0.000000    0.000000    0.707107  
      1.234117  0.712518 14.997550     0.000000    0.000000   -0.707107  
 
   4 f  =    0.000001 THz     0.000006 2PiTHz    0.000032 cm-1     0.000004 meV
             X         Y         Z           dx          dy          dz
     -0.000000  1.425036 14.997550     0.179573    0.682773   -0.039687  
      1.234117  0.712518 14.997550     0.179573    0.682773   -0.039687  
 
   5 f  =    0.000000 THz     0.000001 2PiTHz    0.000007 cm-1     0.000001 meV
             X         Y         Z           dx          dy          dz
     -0.000000  1.425036 14.997550     0.660957   -0.162706    0.191475  
      1.234117  0.712518 14.997550     0.660957   -0.162706    0.191475  
 
   6 f/i=    0.000000 THz     0.000001 2PiTHz    0.000004 cm-1     0.000000 meV
             X         Y         Z           dx          dy          dz
     -0.000000  1.425036 14.997550    -0.175754    0.085723    0.679531  
      1.234117  0.712518 14.997550    -0.175754    0.085723    0.679531  
 


--------------------------------------------------------------------------------------------------------



 ELASTIC MODULI CONTR FROM IONIC RELAXATION (kBar)
 Direction    XX          YY          ZZ          XY          YZ          ZX
 --------------------------------------------------------------------------------
 XX         -10.4223     10.4223     -0.0000      0.0000      0.0000      0.0000
 YY          10.4223    -10.4223      0.0000      0.0000      0.0000      0.0000
 ZZ          -0.0000      0.0000     -0.0000      0.0000      0.0000      0.0000
 XY           0.0000      0.0000      0.0000    -10.4223      0.0000      0.0000
 YZ           0.0000      0.0000      0.0000      0.0000      0.0000      0.0000
 ZX           0.0000      0.0000      0.0000      0.0000      0.0000      0.0000
 --------------------------------------------------------------------------------


 TOTAL ELASTIC MODULI (kBar)
 Direction    XX          YY          ZZ          XY          YZ          ZX
 --------------------------------------------------------------------------------
 XX        1134.2606    241.9186      5.9139     -0.0000     -0.0000      0.0000
 YY         241.9186   1134.2605      5.9139     -0.0000      0.0000      0.0000
 ZZ           5.9139      5.9139      1.8781     -0.0000     -0.0000     -0.0000
 XY          -0.0000     -0.0000     -0.0000    446.1710     -0.0000      0.0000
 YZ           0.0000      0.0000     -0.0000     -0.0000      0.0136     -0.0000
 ZX           0.0000     -0.0000     -0.0000      0.0000     -0.0000      0.0135
 --------------------------------------------------------------------------------



--------------------------------------------------------------------------------------------------------


  LATTYP: Found a hexagonal cell.
 ALAT       =     2.4682340515
 C/A-ratio  =    12.1524536957
  
  Lattice vectors:
  
 A1 = (   2.4682341087,   0.0000000000,   0.0000000000)
 A2 = (  -1.2341170932,   2.1375533970,   0.0000000000)
 A3 = (   0.0000000000,   0.0000000000,  29.9951000214)


Analysis of symmetry for initial positions (statically):
=====================================================================
 Subroutine PRICEL returns:
 Original cell was already a primitive cell.
 

 Routine SETGRP: Setting up the symmetry group for a 
 hexagonal supercell.


 Subroutine GETGRP returns: Found 24 space group operations
 (whereof 24 operations were pure point group operations)
 out of a pool of 24 trial point group operations.


The static configuration has the point symmetry D_6h.


Analysis of symmetry for dynamics (positions and initial velocities):
=====================================================================
 Subroutine PRICEL returns:
 Original cell was already a primitive cell.
 

 Routine SETGRP: Setting up the symmetry group for a 
 hexagonal supercell.


 Subroutine GETGRP returns: Found 24 space group operations
 (whereof 24 operations were pure point group operations)
 out of a pool of 24 trial point group operations.


The dynamic configuration has the point symmetry D_6h.


 Subroutine INISYM returns: Found 24 space group operations
 (whereof 24 operations are pure point group operations),
 and found     1 'primitive' translations

 
 KPOINTS: Automatic mesh                          

Automatic generation of k-mesh.
Space group operators:
 irot       det(A)        alpha          n_x          n_y          n_z        tau_x        tau_y        tau_z
    1     1.000000     0.000001     1.000000     0.000000     0.000000     0.000000     0.000000     0.000000
    2    -1.000000     0.000001     1.000000     0.000000     0.000000     0.000000     0.000000     0.000000
    3     1.000000    60.000000     0.000000     0.000000    -1.000000     0.000000     0.000000     0.000000
    4    -1.000000    60.000000     0.000000     0.000000    -1.000000     0.000000     0.000000     0.000000
    5     1.000000   120.000000     0.000000     0.000000    -1.000000     0.000000     0.000000     0.000000
    6    -1.000000   120.000000     0.000000     0.000000    -1.000000     0.000000     0.000000     0.000000
    7     1.000000   180.000000     0.000000     0.000000     1.000000     0.000000     0.000000     0.000000
    8    -1.000000   180.000000     0.000000     0.000000     1.000000     0.000000     0.000000     0.000000
    9     1.000000   120.000000     0.000000     0.000000     1.000000     0.000000     0.000000     0.000000
   10    -1.000000   120.000000     0.000000     0.000000     1.000000     0.000000     0.000000     0.000000
   11     1.000000    60.000000     0.000000     0.000000     1.000000     0.000000     0.000000     0.000000
   12    -1.000000    60.000000     0.000000     0.000000     1.000000     0.000000     0.000000     0.000000
   13     1.000000   180.000000     1.000000     0.000000     0.000000     0.000000     0.000000     0.000000
   14    -1.000000   180.000000     1.000000     0.000000     0.000000     0.000000     0.000000     0.000000
   15     1.000000   180.000000     0.866025    -0.500000     0.000000     0.000000     0.000000     0.000000
   16    -1.000000   180.000000     0.866025    -0.500000     0.000000     0.000000     0.000000     0.000000
   17     1.000000   179.999999     0.500000    -0.866025     0.000000     0.000000     0.000000     0.000000
   18    -1.000000   179.999999     0.500000    -0.866025     0.000000     0.000000     0.000000     0.000000
   19     1.000000   179.999999     0.000000     1.000000     0.000000     0.000000     0.000000     0.000000
   20    -1.000000   179.999999     0.000000     1.000000     0.000000     0.000000     0.000000     0.000000
   21     1.000000   179.999999    -0.500000    -0.866025     0.000000     0.000000     0.000000     0.000000
   22    -1.000000   179.999999    -0.500000    -0.866025     0.000000     0.000000     0.000000     0.000000
   23     1.000000   180.000000     0.866025     0.500000     0.000000     0.000000     0.000000     0.000000
   24    -1.000000   180.000000     0.866025     0.500000     0.000000     0.000000     0.000000     0.000000
 
 Subroutine IBZKPT returns following result:
 ===========================================
 
 Found     27 irreducible k-points:
 
 Following reciprocal coordinates:
            Coordinates               Weight
  0.000000  0.000000  0.000000      1.000000
  0.066667  0.000000  0.000000      6.000000
  0.133333  0.000000  0.000000      6.000000
  0.200000  0.000000  0.000000      6.000000
  0.266667  0.000000  0.000000      6.000000
  0.333333  0.000000  0.000000      6.000000
  0.400000  0.000000  0.000000      6.000000
  0.466667  0.000000  0.000000      6.000000
  0.066667  0.066667  0.000000      6.000000
  0.133333  0.066667  0.000000     12.000000
  0.200000  0.066667  0.000000     12.000000
  0.266667  0.066667  0.000000     12.000000
  0.333333  0.066667  0.000000     12.000000
  0.400000  0.066667  0.000000     12.000000
  0.466667  0.066667  0.000000      6.000000
  0.133333  0.133333  0.000000      6.000000
  0.200000  0.133333  0.000000     12.000000
  0.266667  0.133333  0.000000     12.000000
  0.333333  0.133333  0.000000     12.000000
  0.400000  0.133333  0.000000     12.000000
  0.200000  0.200000  0.000000      6.000000
  0.266667  0.200000  0.000000     12.000000
  0.333333  0.200000  0.000000     12.000000
  0.400000  0.200000  0.000000      6.000000
  0.266667  0.266667  0.000000      6.000000
  0.333333  0.266667  0.000000     12.000000
  0.333333  0.333333  0.000000      2.000000
 
 Following cartesian coordinates:
            Coordinates               Weight
  0.000000  0.000000  0.000000      1.000000
  0.027010  0.015594  0.000000      6.000000
  0.054020  0.031188  0.000000      6.000000
  0.081030  0.046782  0.000000      6.000000
  0.108039  0.062377  0.000000      6.000000
  0.135049  0.077971  0.000000      6.000000
  0.162059  0.093565  0.000000      6.000000
  0.189069  0.109159  0.000000      6.000000
  0.027010  0.046782  0.000000      6.000000
  0.054020  0.062377  0.000000     12.000000
  0.081030  0.077971  0.000000     12.000000
  0.108039  0.093565  0.000000     12.000000
  0.135049  0.109159  0.000000     12.000000
  0.162059  0.124753  0.000000     12.000000
  0.189069  0.140347  0.000000      6.000000
  0.054020  0.093565  0.000000      6.000000
  0.081030  0.109159  0.000000     12.000000
  0.108039  0.124753  0.000000     12.000000
  0.135049  0.140347  0.000000     12.000000
  0.162059  0.155942  0.000000     12.000000
  0.081030  0.140347  0.000000      6.000000
  0.108039  0.155942  0.000000     12.000000
  0.135049  0.171536  0.000000     12.000000
  0.162059  0.187130  0.000000      6.000000
  0.108039  0.187130  0.000000      6.000000
  0.135049  0.202724  0.000000     12.000000
  0.135049  0.233912  0.000000      2.000000
 
     LOOP+:  cpu time    3.3556: real time    3.4365
    4ORBIT:  cpu time    0.0000: real time    0.0000

 total amount of memory used by VASP MPI-rank0    43582. kBytes
=======================================================================

   base      :      30000. kBytes
   nonl-proj :       7251. kBytes
   fftplans  :        844. kBytes
   grid      :       3684. kBytes
   one-center:          6. kBytes
   wavefun   :       1797. kBytes
 
  
  
 General timing and accounting informations for this job:
 ========================================================
  
                  Total CPU time used (sec):      168.409
                            User time (sec):      160.512
                          System time (sec):        7.897
                         Elapsed time (sec):      171.730
  
                   Maximum memory used (kb):      166788.
                   Average memory used (kb):           0.
  
                          Minor page faults:       144230
                          Major page faults:            0
                 Voluntary context switches:        14739
