    3    3    1    2
  0.5971411E+02  0.3020049E-09  0.3020049E-09  0.1964130E-08  0.5000000E-15
  1.000000000000000E-004
  CAR 
 Tetra-MnN2                              
     17    88    160
 
  0.0000000E+00  0.0000000E+00  0.0000000E+00  0.0000000E+00
    1      -21.410406    -22.969234   1.000000   1.000000
    2      -19.871833    -21.520199   1.000000   1.000000
    3      -11.713035    -10.417517   1.000000   1.000000
    4      -11.571450    -10.417517   1.000000   1.000000
    5      -11.571450    -10.246868   1.000000   1.000000
    6      -11.086219    -10.019092   1.000000   1.000000
    7       -9.262044     -7.823681   1.000000   1.000000
    8       -5.493931     -7.823655   1.000000   1.000000
    9       -4.286529     -3.040551   0.000000   0.000000
   10       -4.286529     -1.148155   0.000000   0.000000
   11       -1.185002      0.155074   0.000000   0.000000
   12       -0.205795      1.098897   0.000000   0.000000
   13       -0.205795      1.098899   0.000000   0.000000
   14        1.323744      1.270732   0.000000   0.000000
   15        1.850031      1.859658   0.000000   0.000000
   16        2.144168      2.111205   0.000000   0.000000
   17        3.239952      3.169852   0.000000   0.000000
   18        3.376642      3.322412   0.000000   0.000000
   19        4.779720      5.043754   0.000000   0.000000
   20        5.174431      5.091351   0.000000   0.000000
   21        6.235425      6.668547   0.000000   0.000000
   22        7.949112      7.814950   0.000000   0.000000
   23        9.430806      9.573871   0.000000   0.000000
   24       10.512309     10.662463   0.000000   0.000000
   25       11.912937     12.031001   0.000000   0.000000
   26       12.715037     12.541351   0.000000   0.000000
   27       13.590507     13.667555   0.000000   0.000000
   28       15.278668     15.214144   0.000000   0.000000
   29       15.382938     15.348637   0.000000   0.000000
   30       15.382938     15.350097   0.000000   0.000000
   31       16.669741     16.567487   0.000000   0.000000
   32       16.669741     16.567487   0.000000   0.000000
   33       17.318582     17.106211   0.000000   0.000000
   34       17.318582     17.106211   0.000000   0.000000
   35       17.598129     17.622346   0.000000   0.000000
   36       17.964083     18.037129   0.000000   0.000000
   37       17.997045     18.042607   0.000000   0.000000
   38       18.419044     18.459467   0.000000   0.000000
   39       18.501166     18.544530   0.000000   0.000000
   40       18.566913     18.544530   0.000000   0.000000
   41       18.566913     18.546997   0.000000   0.000000
   42       18.658099     18.660577   0.000000   0.000000
   43       18.921345     18.905659   0.000000   0.000000
   44       18.921345     18.956588   0.000000   0.000000
   45       18.921346     18.956588   0.000000   0.000000
   46       19.030052     19.055775   0.000000   0.000000
   47       19.970438     19.939018   0.000000   0.000000
   48       19.970438     19.939018   0.000000   0.000000
   49       19.984440     19.987896   0.000000   0.000000
   50       20.124099     20.117824   0.000000   0.000000
   51       20.514066     20.598368   0.000000   0.000000
   52       20.514066     20.598368   0.000000   0.000000
   53       20.603556     20.658468   0.000000   0.000000
   54       20.821766     20.824750   0.000000   0.000000
   55       22.376348     22.343490   0.000000   0.000000
   56       22.376348     22.343490   0.000000   0.000000
   57       22.408888     22.376803   0.000000   0.000000
   58       22.540197     22.554607   0.000000   0.000000
   59       22.646141     23.016975   0.000000   0.000000
   60       22.847725     23.016975   0.000000   0.000000
   61       22.847725     23.459578   0.000000   0.000000
   62       23.327538     23.551324   0.000000   0.000000
   63       23.388957     23.988366   0.000000   0.000000
   64       23.911355     24.076481   0.000000   0.000000
   65       24.116165     24.272686   0.000000   0.000000
   66       24.825613     25.142438   0.000000   0.000000
   67       24.929495     25.655194   0.000000   0.000000
   68       25.621764     25.655194   0.000000   0.000000
   69       25.621764     25.965675   0.000000   0.000000
   70       25.820961     25.965675   0.000000   0.000000
   71       25.820961     25.995091   0.000000   0.000000
   72       25.939735     26.224715   0.000000   0.000000
   73       26.252606     27.110587   0.000000   0.000000
   74       26.313651     27.348155   0.000000   0.000000
   75       26.363658     27.869417   0.000000   0.000000
   76       26.363658     28.051590   0.000000   0.000000
   77       27.117111     29.481941   0.000000   0.000000
   78       27.639643     29.481942   0.000000   0.000000
   79       28.045436     29.701791   0.000000   0.000000
   80       29.442716     29.701791   0.000000   0.000000
   81       29.442716     29.796929   0.000000   0.000000
   82       29.766475     29.944193   0.000000   0.000000
   83       29.766475     29.944194   0.000000   0.000000
   84       29.841239     30.102426   0.000000   0.000000
   85       30.296609     30.388546   0.000000   0.000000
   86       30.579583     30.613977   0.000000   0.000000
   87       30.635316     30.757094   0.000000   0.000000
   88       31.934623     32.092156   0.000000   0.000000
   89       32.408389     32.266256   0.000000   0.000000
   90       32.408389     32.266256   0.000000   0.000000
   91       33.406414     33.342116   0.000000   0.000000
   92       33.435018     33.342118   0.000000   0.000000
   93       33.435028     33.375210   0.000000   0.000000
   94       33.577667     33.715583   0.000000   0.000000
   95       34.296427     34.361932   0.000000   0.000000
   96       34.521347     34.534260   0.000000   0.000000
   97       34.571546     34.539613   0.000000   0.000000
   98       34.614412     34.684252   0.000000   0.000000
   99       34.617005     34.687089   0.000000   0.000000
  100       34.773149     34.770717   0.000000   0.000000
  101       34.775074     34.773246   0.000000   0.000000
  102       35.025809     35.051918   0.000000   0.000000
  103       35.032433     35.059188   0.000000   0.000000
  104       35.051464     35.064798   0.000000   0.000000
  105       35.107597     35.089238   0.000000   0.000000
  106       35.428133     35.409502   0.000000   0.000000
  107       35.683004     35.724082   0.000000   0.000000
  108       35.765183     35.727190   0.000000   0.000000
  109       35.772234     35.736518   0.000000   0.000000
  110       35.866175     35.832473   0.000000   0.000000
  111       35.871982     35.883776   0.000000   0.000000
  112       35.939970     35.939683   0.000000   0.000000
  113       36.383733     36.453897   0.000000   0.000000
  114       36.396599     36.473763   0.000000   0.000000
  115       36.398792     36.527343   0.000000   0.000000
  116       37.156693     37.226074   0.000000   0.000000
  117       37.271956     37.235564   0.000000   0.000000
  118       37.672673     37.609362   0.000000   0.000000
  119       37.705993     37.625452   0.000000   0.000000
  120       37.882135     37.934511   0.000000   0.000000
  121       38.037455     38.271217   0.000000   0.000000
  122       38.360959     38.489219   0.000000   0.000000
  123       38.407654     38.559960   0.000000   0.000000
  124       39.276670     39.293012   0.000000   0.000000
  125       39.493622     39.522663   0.000000   0.000000
  126       39.657552     39.562305   0.000000   0.000000
  127       39.718353     39.645581   0.000000   0.000000
  128       39.888000     40.052014   0.000000   0.000000
  129       40.105898     40.315052   0.000000   0.000000
  130       40.452277     40.375093   0.000000   0.000000
  131       40.595170     40.466155   0.000000   0.000000
  132       40.792529     40.634840   0.000000   0.000000
  133       40.810993     40.921278   0.000000   0.000000
  134       41.110684     41.081563   0.000000   0.000000
  135       41.269696     41.574697   0.000000   0.000000
  136       41.560980     41.595980   0.000000   0.000000
  137       42.050470     42.546838   0.000000   0.000000
  138       42.061600     42.574324   0.000000   0.000000
  139       42.267477     42.605980   0.000000   0.000000
  140       42.736995     42.921713   0.000000   0.000000
  141       43.154872     43.394908   0.000000   0.000000
  142       43.929301     44.050233   0.000000   0.000000
  143       44.068731     44.732572   0.000000   0.000000
  144       44.512894     45.092513   0.000000   0.000000
  145       45.584694     45.402823   0.000000   0.000000
  146       45.706486     45.581677   0.000000   0.000000
  147       45.949180     45.631822   0.000000   0.000000
  148       46.684212     45.949808   0.000000   0.000000
  149       46.995766     46.956990   0.000000   0.000000
  150       47.188378     47.207600   0.000000   0.000000
  151       47.481226     47.553421   0.000000   0.000000
  152       47.862134     48.322732   0.000000   0.000000
  153       48.480818     48.810001   0.000000   0.000000
  154       48.604195     49.290086   0.000000   0.000000
  155       48.861760     50.236927   0.000000   0.000000
  156       50.368120     51.775271   0.000000   0.000000
  157       51.831863     51.797265   0.000000   0.000000
  158       52.758892     55.028650   0.000000   0.000000
  159       54.839036     55.828393   0.000000   0.000000
  160       54.950186     60.984173   0.000000   0.000000
 
  0.2000000E-01  0.0000000E+00  0.0000000E+00  0.0000000E+00
    1      -21.406655    -22.965899   1.000000   1.000000
    2      -19.871143    -21.519584   1.000000   1.000000
    3      -11.710293    -10.422988   1.000000   1.000000
    4      -11.576150    -10.416616   1.000000   1.000000
    5      -11.570806    -10.240835   1.000000   1.000000
    6      -11.076234    -10.015413   1.000000   1.000000
    7       -9.267534     -7.832340   1.000000   1.000000
    8       -5.496075     -7.827474   1.000000   1.000000
    9       -4.308294     -3.035183   0.000000   0.000000
   10       -4.277746     -1.152251   0.000000   0.000000
   11       -1.185262      0.155211   0.000000   0.000000
   12       -0.226995      1.078455   0.000000   0.000000
   13       -0.207451      1.096951   0.000000   0.000000
   14        1.336055      1.284314   0.000000   0.000000
   15        1.855156      1.865041   0.000000   0.000000
   16        2.152386      2.118441   0.000000   0.000000
   17        3.245855      3.176266   0.000000   0.000000
   18        3.386665      3.330637   0.000000   0.000000
   19        4.792241      5.053283   0.000000   0.000000
   20        5.182230      5.098602   0.000000   0.000000
   21        6.243950      6.677851   0.000000   0.000000
   22        7.942711      7.820771   0.000000   0.000000
   23        9.436061      9.579288   0.000000   0.000000
   24       10.516069     10.662757   0.000000   0.000000
   25       11.917271     12.033131   0.000000   0.000000
   26       12.701185     12.525048   0.000000   0.000000
   27       13.590090     13.667151   0.000000   0.000000
   28       15.177220     15.100033   0.000000   0.000000
   29       15.384053     15.370592   0.000000   0.000000
   30       15.430127     15.419122   0.000000   0.000000
   31       16.602526     16.501720   0.000000   0.000000
   32       16.667390     16.566885   0.000000   0.000000
   33       17.078907     16.940630   0.000000   0.000000
   34       17.316191     17.103676   0.000000   0.000000
   35       17.669976     17.679655   0.000000   0.000000
   36       17.912588     17.868044   0.000000   0.000000
   37       17.974395     18.030209   0.000000   0.000000
   38       18.200679     18.240975   0.000000   0.000000
   39       18.267471     18.315997   0.000000   0.000000
   40       18.550440     18.550577   0.000000   0.000000
   41       18.572697     18.568307   0.000000   0.000000
   42       18.734244     18.750888   0.000000   0.000000
   43       18.895056     18.894577   0.000000   0.000000
   44       18.923092     18.959934   0.000000   0.000000
   45       19.245351     19.222617   0.000000   0.000000
   46       19.365636     19.391307   0.000000   0.000000
   47       19.692019     19.720732   0.000000   0.000000
   48       19.818922     19.834644   0.000000   0.000000
   49       19.974162     19.943218   0.000000   0.000000
   50       20.157193     20.161155   0.000000   0.000000
   51       20.506259     20.594037   0.000000   0.000000
   52       20.633879     20.665730   0.000000   0.000000
   53       20.897157     20.936298   0.000000   0.000000
   54       20.974956     20.976406   0.000000   0.000000
   55       22.001950     22.065206   0.000000   0.000000
   56       22.199287     22.218142   0.000000   0.000000
   57       22.376772     22.344020   0.000000   0.000000
   58       22.470406     22.465523   0.000000   0.000000
   59       22.774394     22.951645   0.000000   0.000000
   60       22.882901     23.326372   0.000000   0.000000
   61       23.224370     23.521243   0.000000   0.000000
   62       23.421956     23.624772   0.000000   0.000000
   63       23.459656     23.997706   0.000000   0.000000
   64       23.904452     24.084276   0.000000   0.000000
   65       24.127368     24.285743   0.000000   0.000000
   66       24.783289     25.014296   0.000000   0.000000
   67       24.930467     25.489598   0.000000   0.000000
   68       25.345089     25.671206   0.000000   0.000000
   69       25.646209     25.714100   0.000000   0.000000
   70       25.687687     25.989168   0.000000   0.000000
   71       25.842144     26.198194   0.000000   0.000000
   72       26.096662     26.562040   0.000000   0.000000
   73       26.318324     27.186244   0.000000   0.000000
   74       26.358223     27.902622   0.000000   0.000000
   75       26.364727     28.015158   0.000000   0.000000
   76       26.546529     29.217708   0.000000   0.000000
   77       27.189056     29.487057   0.000000   0.000000
   78       27.700682     29.599442   0.000000   0.000000
   79       28.005964     29.621209   0.000000   0.000000
   80       29.197777     29.710821   0.000000   0.000000
   81       29.447528     29.840611   0.000000   0.000000
   82       29.605424     29.924633   0.000000   0.000000
   83       29.777428     29.943448   0.000000   0.000000
   84       29.892638     30.192221   0.000000   0.000000
   85       30.489224     30.498837   0.000000   0.000000
   86       30.602823     30.671899   0.000000   0.000000
   87       30.810308     30.884508   0.000000   0.000000
   88       31.936060     32.030993   0.000000   0.000000
   89       32.207613     32.122013   0.000000   0.000000
   90       32.402155     32.331634   0.000000   0.000000
   91       33.054191     33.011581   0.000000   0.000000
   92       33.243292     33.161521   0.000000   0.000000
   93       33.589881     33.525252   0.000000   0.000000
   94       33.700575     33.759732   0.000000   0.000000
   95       33.976189     34.020026   0.000000   0.000000
   96       34.312125     34.327379   0.000000   0.000000
   97       34.330526     34.335899   0.000000   0.000000
   98       34.372174     34.394650   0.000000   0.000000
   99       34.488542     34.506866   0.000000   0.000000
  100       34.778726     34.824126   0.000000   0.000000
  101       34.784992     34.885984   0.000000   0.000000
  102       35.004805     34.971259   0.000000   0.000000
  103       35.097235     35.072786   0.000000   0.000000
  104       35.233967     35.201751   0.000000   0.000000
  105       35.351986     35.342542   0.000000   0.000000
  106       35.393137     35.407461   0.000000   0.000000
  107       35.477555     35.510635   0.000000   0.000000
  108       35.591714     35.607929   0.000000   0.000000
  109       35.717543     35.750313   0.000000   0.000000
  110       35.839159     35.844634   0.000000   0.000000
  111       36.126686     36.156806   0.000000   0.000000
  112       36.412259     36.356730   0.000000   0.000000
  113       36.537357     36.558636   0.000000   0.000000
  114       36.641025     36.635462   0.000000   0.000000
  115       36.851246     36.687033   0.000000   0.000000
  116       36.919155     36.843385   0.000000   0.000000
  117       37.099546     37.190172   0.000000   0.000000
  118       37.422498     37.469504   0.000000   0.000000
  119       37.583884     37.629462   0.000000   0.000000
  120       37.800699     37.871162   0.000000   0.000000
  121       38.248994     38.371370   0.000000   0.000000
  122       38.469701     38.513930   0.000000   0.000000
  123       38.692943     38.847115   0.000000   0.000000
  124       39.138267     39.127521   0.000000   0.000000
  125       39.171573     39.196402   0.000000   0.000000
  126       39.594922     39.560421   0.000000   0.000000
  127       39.873092     39.716577   0.000000   0.000000
  128       39.877927     40.001915   0.000000   0.000000
  129       40.072523     40.268554   0.000000   0.000000
  130       40.392372     40.349586   0.000000   0.000000
  131       40.474865     40.382064   0.000000   0.000000
  132       40.705987     40.745418   0.000000   0.000000
  133       40.852201     40.826350   0.000000   0.000000
  134       41.302833     41.364529   0.000000   0.000000
  135       41.661818     41.660395   0.000000   0.000000
  136       42.079280     41.921065   0.000000   0.000000
  137       42.088505     42.199895   0.000000   0.000000
  138       42.571177     42.468564   0.000000   0.000000
  139       42.647043     42.790963   0.000000   0.000000
  140       43.140989     42.966662   0.000000   0.000000
  141       43.715373     43.720097   0.000000   0.000000
  142       43.759026     44.100184   0.000000   0.000000
  143       44.487934     44.529290   0.000000   0.000000
  144       44.910765     45.436346   0.000000   0.000000
  145       45.135027     45.471712   0.000000   0.000000
  146       45.222833     45.745240   0.000000   0.000000
  147       45.372315     46.103736   0.000000   0.000000
  148       46.500415     46.116725   0.000000   0.000000
  149       46.528031     46.627261   0.000000   0.000000
  150       47.236003     46.637614   0.000000   0.000000
  151       48.078545     47.348130   0.000000   0.000000
  152       48.288316     47.864683   0.000000   0.000000
  153       48.418973     48.786703   0.000000   0.000000
  154       48.908434     49.544060   0.000000   0.000000
  155       49.330567     49.887497   0.000000   0.000000
  156       49.694237     51.419654   0.000000   0.000000
  157       51.338571     51.796121   0.000000   0.000000
  158       54.140938     54.816694   0.000000   0.000000
  159       55.049638     55.481600   0.000000   0.000000
  160       55.149093     62.679127   0.000000   0.000000
 
  0.4000000E-01  0.0000000E+00  0.0000000E+00  0.0000000E+00
    1      -21.395374    -22.955898   1.000000   1.000000
    2      -19.869086    -21.517762   1.000000   1.000000
    3      -11.702306    -10.437625   1.000000   1.000000
    4      -11.588774    -10.413899   1.000000   1.000000
    5      -11.568880    -10.224698   1.000000   1.000000
    6      -11.047492    -10.004268   1.000000   1.000000
    7       -9.283813     -7.857915   1.000000   1.000000
    8       -5.502604     -7.838711   1.000000   1.000000
    9       -4.372776     -3.019171   0.000000   0.000000
   10       -4.251583     -1.164770   0.000000   0.000000
   11       -1.186266      0.155549   0.000000   0.000000
   12       -0.288184      1.025412   0.000000   0.000000
   13       -0.212255      1.091261   0.000000   0.000000
   14        1.371564      1.318170   0.000000   0.000000
   15        1.870555      1.880917   0.000000   0.000000
   16        2.176888      2.140099   0.000000   0.000000
   17        3.263506      3.195336   0.000000   0.000000
   18        3.416564      3.355285   0.000000   0.000000
   19        4.829026      5.080937   0.000000   0.000000
   20        5.205600      5.120734   0.000000   0.000000
   21        6.269527      6.705597   0.000000   0.000000
   22        7.958593      7.838182   0.000000   0.000000
   23        9.451821      9.595523   0.000000   0.000000
   24       10.526739     10.663058   0.000000   0.000000
   25       11.929869     12.039125   0.000000   0.000000
   26       12.658683     12.475673   0.000000   0.000000
   27       13.587708     13.664781   0.000000   0.000000
   28       14.996422     14.909501   0.000000   0.000000
   29       15.387082     15.365674   0.000000   0.000000
   30       15.446257     15.477467   0.000000   0.000000
   31       16.402678     16.305295   0.000000   0.000000
   32       16.659891     16.564739   0.000000   0.000000
   33       16.711502     16.644384   0.000000   0.000000
   34       17.309528     17.096707   0.000000   0.000000
   35       17.371587     17.324691   0.000000   0.000000
   36       17.700679     17.697475   0.000000   0.000000
   37       17.804960     17.830962   0.000000   0.000000
   38       18.060347     18.111621   0.000000   0.000000
   39       18.430820     18.466126   0.000000   0.000000
   40       18.590137     18.554848   0.000000   0.000000
   41       18.607233     18.568778   0.000000   0.000000
   42       18.674639     18.687479   0.000000   0.000000
   43       18.864121     18.879810   0.000000   0.000000
   44       18.928215     18.969880   0.000000   0.000000
   45       19.180372     19.205414   0.000000   0.000000
   46       19.481317     19.499811   0.000000   0.000000
   47       19.975231     19.956037   0.000000   0.000000
   48       19.985584     19.962586   0.000000   0.000000
   49       20.019168     20.070638   0.000000   0.000000
   50       20.195619     20.206734   0.000000   0.000000
   51       20.483737     20.581191   0.000000   0.000000
   52       20.674453     20.703559   0.000000   0.000000
   53       21.206567     21.179444   0.000000   0.000000
   54       21.351924     21.348583   0.000000   0.000000
   55       21.619027     21.765992   0.000000   0.000000
   56       21.974676     22.020139   0.000000   0.000000
   57       22.378497     22.346470   0.000000   0.000000
   58       22.488569     22.477761   0.000000   0.000000
   59       22.640833     22.818655   0.000000   0.000000
   60       23.065672     23.150480   0.000000   0.000000
   61       23.583802     23.627885   0.000000   0.000000
   62       23.617470     23.738882   0.000000   0.000000
   63       23.701038     23.781393   0.000000   0.000000
   64       23.934288     24.080085   0.000000   0.000000
   65       24.141971     24.324493   0.000000   0.000000
   66       24.693259     24.787756   0.000000   0.000000
   67       24.935499     25.236739   0.000000   0.000000
   68       24.952044     25.657762   0.000000   0.000000
   69       25.713077     25.719039   0.000000   0.000000
   70       25.717650     25.811080   0.000000   0.000000
   71       25.904526     26.059414   0.000000   0.000000
   72       26.136526     26.312225   0.000000   0.000000
   73       26.326594     27.006214   0.000000   0.000000
   74       26.368566     27.421153   0.000000   0.000000
   75       26.403263     27.850175   0.000000   0.000000
   76       26.996342     28.059876   0.000000   0.000000
   77       27.365455     28.782959   0.000000   0.000000
   78       27.841075     29.458556   0.000000   0.000000
   79       27.932151     29.500865   0.000000   0.000000
   80       28.775944     29.737164   0.000000   0.000000
   81       29.409982     29.846048   0.000000   0.000000
   82       29.460732     29.929786   0.000000   0.000000
   83       29.810155     29.941497   0.000000   0.000000
   84       29.920705     30.252270   0.000000   0.000000
   85       30.594753     30.649531   0.000000   0.000000
   86       30.820542     30.802484   0.000000   0.000000
   87       31.158668     31.198896   0.000000   0.000000
   88       31.780996     31.778724   0.000000   0.000000
   89       31.960598     31.972371   0.000000   0.000000
   90       32.390117     32.428452   0.000000   0.000000
   91       32.650721     32.631244   0.000000   0.000000
   92       32.825037     32.760540   0.000000   0.000000
   93       33.355868     33.349872   0.000000   0.000000
   94       33.548769     33.550624   0.000000   0.000000
   95       33.591215     33.571189   0.000000   0.000000
   96       33.823448     33.838504   0.000000   0.000000
   97       34.016910     34.003546   0.000000   0.000000
   98       34.139403     34.145953   0.000000   0.000000
   99       34.300941     34.275220   0.000000   0.000000
  100       34.644304     34.697984   0.000000   0.000000
  101       34.755604     34.733547   0.000000   0.000000
  102       34.804787     34.791919   0.000000   0.000000
  103       34.999752     35.076003   0.000000   0.000000
  104       35.042707     35.161624   0.000000   0.000000
  105       35.311909     35.231268   0.000000   0.000000
  106       35.350869     35.387404   0.000000   0.000000
  107       35.643709     35.606757   0.000000   0.000000
  108       35.960146     36.001313   0.000000   0.000000
  109       36.135167     36.159787   0.000000   0.000000
  110       36.332029     36.327221   0.000000   0.000000
  111       36.444710     36.436964   0.000000   0.000000
  112       36.520691     36.472191   0.000000   0.000000
  113       36.723303     36.681465   0.000000   0.000000
  114       36.766708     36.778120   0.000000   0.000000
  115       36.912683     36.902433   0.000000   0.000000
  116       36.920700     36.925233   0.000000   0.000000
  117       37.486807     37.399365   0.000000   0.000000
  118       37.505567     37.431802   0.000000   0.000000
  119       37.771733     37.478795   0.000000   0.000000
  120       38.049851     37.812400   0.000000   0.000000
  121       38.458962     38.427112   0.000000   0.000000
  122       38.583661     38.737355   0.000000   0.000000
  123       38.797278     38.900660   0.000000   0.000000
  124       38.999919     38.916866   0.000000   0.000000
  125       39.108066     39.188609   0.000000   0.000000
  126       39.641342     39.559992   0.000000   0.000000
  127       39.769095     39.824605   0.000000   0.000000
  128       39.989163     39.903621   0.000000   0.000000
  129       40.037329     40.084162   0.000000   0.000000
  130       40.110184     40.302863   0.000000   0.000000
  131       40.463895     40.482336   0.000000   0.000000
  132       40.477903     40.555370   0.000000   0.000000
  133       40.655425     40.815902   0.000000   0.000000
  134       41.417016     41.420744   0.000000   0.000000
  135       41.527388     41.562122   0.000000   0.000000
  136       42.239493     42.171287   0.000000   0.000000
  137       42.246397     42.561343   0.000000   0.000000
  138       42.601307     42.573969   0.000000   0.000000
  139       43.048198     42.924814   0.000000   0.000000
  140       43.214257     43.090748   0.000000   0.000000
  141       43.737308     43.219650   0.000000   0.000000
  142       43.739495     44.044412   0.000000   0.000000
  143       44.887939     44.896632   0.000000   0.000000
  144       45.099311     45.031919   0.000000   0.000000
  145       45.449777     45.309427   0.000000   0.000000
  146       45.642694     45.638788   0.000000   0.000000
  147       45.951810     46.159005   0.000000   0.000000
  148       46.076379     46.173877   0.000000   0.000000
  149       46.562445     47.377991   0.000000   0.000000
  150       47.101302     47.425886   0.000000   0.000000
  151       47.923660     47.772803   0.000000   0.000000
  152       48.221052     48.289128   0.000000   0.000000
  153       48.404050     48.918444   0.000000   0.000000
  154       48.987352     49.018730   0.000000   0.000000
  155       49.716313     50.453714   0.000000   0.000000
  156       50.308986     50.780164   0.000000   0.000000
  157       51.016504     52.888151   0.000000   0.000000
  158       54.581190     54.451280   0.000000   0.000000
  159       54.989790     54.462153   0.000000   0.000000
  160       57.297901     63.599720   0.000000   0.000000
 
  0.6000000E-01  0.0000000E+00  0.0000000E+00  0.0000000E+00
    1      -21.376690    -22.939328   1.000000   1.000000
    2      -19.865739    -21.514796   1.000000   1.000000
    3      -11.690180    -10.458257   1.000000   1.000000
    4      -11.605390    -10.409420   1.000000   1.000000
    5      -11.565697    -10.202244   1.000000   1.000000
    6      -11.002791     -9.985378   1.000000   1.000000
    7       -9.310351     -7.899306   1.000000   1.000000
    8       -5.513758     -7.857151   1.000000   1.000000
    9       -4.477688     -2.992809   0.000000   0.000000
   10       -4.208641     -1.186314   0.000000   0.000000
   11       -1.188735      0.155891   0.000000   0.000000
   12       -0.383621      0.949842   0.000000   0.000000
   13       -0.220358      1.081724   0.000000   0.000000
   14        1.426833      1.365478   0.000000   0.000000
   15        1.896300      1.906723   0.000000   0.000000
   16        2.217242      2.176057   0.000000   0.000000
   17        3.292763      3.226630   0.000000   0.000000
   18        3.465854      3.396293   0.000000   0.000000
   19        4.887889      5.123687   0.000000   0.000000
   20        5.244519      5.159315   0.000000   0.000000
   21        6.312127      6.751259   0.000000   0.000000
   22        7.988269      7.867113   0.000000   0.000000
   23        9.478059      9.622530   0.000000   0.000000
   24       10.542460     10.661578   0.000000   0.000000
   25       11.949370     12.047530   0.000000   0.000000
   26       12.585358     12.392641   0.000000   0.000000
   27       13.579313     13.656154   0.000000   0.000000
   28       14.780172     14.695072   0.000000   0.000000
   29       15.373104     15.378371   0.000000   0.000000