  12  12   1   0
  0.7008803E+02  0.6968386E-09  0.6968387E-09  0.2000000E-08  0.5000000E-15
  1.000000000000000E-004
  CAR 
 MX2                                     
      7.82043739    -60.37612196  301     -2.03890310      1.00000000
    -60.376  0.0000E+00  0.0000E+00  0.0000E+00  0.0000E+00
    -60.149  0.0000E+00  0.0000E+00  0.0000E+00  0.0000E+00
    -59.921  0.0000E+00  0.0000E+00  0.0000E+00  0.0000E+00
    -59.694  0.0000E+00  0.0000E+00  0.0000E+00  0.0000E+00
    -59.467  0.0000E+00  0.0000E+00  0.0000E+00  0.0000E+00
    -59.240  0.0000E+00  0.0000E+00  0.0000E+00  0.0000E+00
    -59.012  0.0000E+00  0.0000E+00  0.0000E+00  0.0000E+00
    -58.785  0.0000E+00  0.0000E+00  0.0000E+00  0.0000E+00
    -58.558  0.0000E+00  0.0000E+00  0.0000E+00  0.0000E+00
    -58.330  0.0000E+00  0.0000E+00  0.0000E+00  0.0000E+00
    -58.103  0.0000E+00  0.0000E+00  0.0000E+00  0.0000E+00
    -57.876  0.0000E+00  0.0000E+00  0.0000E+00  0.0000E+00
    -57.648  0.0000E+00  0.0000E+00  0.0000E+00  0.0000E+00
    -57.421  0.0000E+00  0.0000E+00  0.0000E+00  0.0000E+00
    -57.194  0.0000E+00  0.0000E+00  0.4000E+01  0.0000E+00
    -56.966  0.0000E+00  0.0000E+00  0.4000E+01  0.4000E+01
    -56.739  0.0000E+00  0.0000E+00  0.4000E+01  0.4000E+01
    -56.512  0.0000E+00  0.0000E+00  0.4000E+01  0.4000E+01
    -56.284  0.0000E+00  0.0000E+00  0.4000E+01  0.4000E+01
    -56.057  0.0000E+00  0.0000E+00  0.4000E+01  0.4000E+01
    -55.830  0.0000E+00  0.0000E+00  0.4000E+01  0.4000E+01
    -55.602  0.0000E+00  0.0000E+00  0.4000E+01  0.4000E+01
    -55.375  0.0000E+00  0.0000E+00  0.4000E+01  0.4000E+01
    -55.148  0.0000E+00  0.0000E+00  0.4000E+01  0.4000E+01
    -54.920  0.0000E+00  0.0000E+00  0.4000E+01  0.4000E+01
    -54.693  0.0000E+00  0.0000E+00  0.4000E+01  0.4000E+01
    -54.466  0.0000E+00  0.0000E+00  0.4000E+01  0.4000E+01
    -54.238  0.0000E+00  0.0000E+00  0.4000E+01  0.4000E+01
    -54.011  0.0000E+00  0.0000E+00  0.4000E+01  0.4000E+01
    -53.784  0.0000E+00  0.0000E+00  0.4000E+01  0.4000E+01
    -53.556  0.0000E+00  0.0000E+00  0.4000E+01  0.4000E+01
    -53.329  0.0000E+00  0.0000E+00  0.4000E+01  0.4000E+01
    -53.102  0.0000E+00  0.0000E+00  0.4000E+01  0.4000E+01
    -52.875  0.0000E+00  0.0000E+00  0.4000E+01  0.4000E+01
    -52.647  0.0000E+00  0.0000E+00  0.4000E+01  0.4000E+01
    -52.420  0.0000E+00  0.0000E+00  0.4000E+01  0.4000E+01
    -52.193  0.0000E+00  0.0000E+00  0.4000E+01  0.4000E+01
    -51.965  0.0000E+00  0.0000E+00  0.4000E+01  0.4000E+01
    -51.738  0.0000E+00  0.0000E+00  0.4000E+01  0.4000E+01
    -51.511  0.0000E+00  0.0000E+00  0.4000E+01  0.4000E+01
    -51.283  0.0000E+00  0.0000E+00  0.4000E+01  0.4000E+01
    -51.056  0.0000E+00  0.0000E+00  0.4000E+01  0.4000E+01
    -50.829  0.0000E+00  0.0000E+00  0.4000E+01  0.4000E+01
    -50.601  0.0000E+00  0.0000E+00  0.4000E+01  0.4000E+01
    -50.374  0.0000E+00  0.0000E+00  0.4000E+01  0.4000E+01
    -50.147  0.0000E+00  0.0000E+00  0.4000E+01  0.4000E+01
    -49.919  0.0000E+00  0.0000E+00  0.4000E+01  0.4000E+01
    -49.692  0.0000E+00  0.0000E+00  0.4000E+01  0.4000E+01
    -49.465  0.0000E+00  0.0000E+00  0.4000E+01  0.4000E+01
    -49.237  0.0000E+00  0.0000E+00  0.4000E+01  0.4000E+01
    -49.010  0.0000E+00  0.0000E+00  0.4000E+01  0.4000E+01
    -48.783  0.0000E+00  0.0000E+00  0.4000E+01  0.4000E+01
    -48.555  0.0000E+00  0.0000E+00  0.4000E+01  0.4000E+01
    -48.328  0.0000E+00  0.0000E+00  0.4000E+01  0.4000E+01
    -48.101  0.0000E+00  0.0000E+00  0.4000E+01  0.4000E+01
    -47.873  0.0000E+00  0.0000E+00  0.4000E+01  0.4000E+01
    -47.646  0.0000E+00  0.0000E+00  0.4000E+01  0.4000E+01
    -47.419  0.0000E+00  0.0000E+00  0.4000E+01  0.4000E+01
    -47.191  0.0000E+00  0.0000E+00  0.4000E+01  0.4000E+01
    -46.964  0.0000E+00  0.0000E+00  0.4000E+01  0.4000E+01
    -46.737  0.0000E+00  0.0000E+00  0.4000E+01  0.4000E+01
    -46.509  0.0000E+00  0.0000E+00  0.4000E+01  0.4000E+01
    -46.282  0.0000E+00  0.0000E+00  0.4000E+01  0.4000E+01
    -46.055  0.0000E+00  0.0000E+00  0.4000E+01  0.4000E+01
    -45.828  0.0000E+00  0.0000E+00  0.4000E+01  0.4000E+01
    -45.600  0.0000E+00  0.0000E+00  0.4000E+01  0.4000E+01
    -45.373  0.0000E+00  0.0000E+00  0.4000E+01  0.4000E+01
    -45.146  0.0000E+00  0.0000E+00  0.4000E+01  0.4000E+01
    -44.918  0.0000E+00  0.0000E+00  0.4000E+01  0.4000E+01
    -44.691  0.0000E+00  0.0000E+00  0.4000E+01  0.4000E+01
    -44.464  0.0000E+00  0.0000E+00  0.4000E+01  0.4000E+01
    -44.236  0.0000E+00  0.0000E+00  0.4000E+01  0.4000E+01
    -44.009  0.0000E+00  0.0000E+00  0.4000E+01  0.4000E+01
    -43.782  0.0000E+00  0.0000E+00  0.4000E+01  0.4000E+01
    -43.554  0.0000E+00  0.0000E+00  0.4000E+01  0.4000E+01
    -43.327  0.0000E+00  0.0000E+00  0.4000E+01  0.4000E+01
    -43.100  0.0000E+00  0.0000E+00  0.4000E+01  0.4000E+01
    -42.872  0.0000E+00  0.0000E+00  0.4000E+01  0.4000E+01
    -42.645  0.0000E+00  0.0000E+00  0.4000E+01  0.4000E+01
    -42.418  0.0000E+00  0.0000E+00  0.4000E+01  0.4000E+01
    -42.190  0.0000E+00  0.0000E+00  0.4000E+01  0.4000E+01
    -41.963  0.0000E+00  0.0000E+00  0.4000E+01  0.4000E+01
    -41.736  0.0000E+00  0.0000E+00  0.4000E+01  0.4000E+01
    -41.508  0.0000E+00  0.0000E+00  0.4000E+01  0.4000E+01
    -41.281  0.0000E+00  0.0000E+00  0.4000E+01  0.4000E+01
    -41.054  0.0000E+00  0.0000E+00  0.4000E+01  0.4000E+01
    -40.826  0.0000E+00  0.0000E+00  0.4000E+01  0.4000E+01
    -40.599  0.0000E+00  0.0000E+00  0.4000E+01  0.4000E+01
    -40.372  0.0000E+00  0.0000E+00  0.4000E+01  0.4000E+01
    -40.144  0.0000E+00  0.0000E+00  0.4000E+01  0.4000E+01
    -39.917  0.0000E+00  0.0000E+00  0.4000E+01  0.4000E+01
    -39.690  0.0000E+00  0.0000E+00  0.4000E+01  0.4000E+01
    -39.463  0.0000E+00  0.0000E+00  0.4000E+01  0.4000E+01
    -39.235  0.0000E+00  0.0000E+00  0.4000E+01  0.4000E+01
    -39.008  0.0000E+00  0.0000E+00  0.4000E+01  0.4000E+01
    -38.781  0.0000E+00  0.0000E+00  0.4000E+01  0.4000E+01
    -38.553  0.0000E+00  0.0000E+00  0.4000E+01  0.4000E+01
    -38.326  0.0000E+00  0.0000E+00  0.4000E+01  0.4000E+01
    -38.099  0.0000E+00  0.0000E+00  0.4000E+01  0.4000E+01
    -37.871  0.0000E+00  0.0000E+00  0.4000E+01  0.4000E+01
    -37.644  0.0000E+00  0.0000E+00  0.4000E+01  0.4000E+01
    -37.417  0.0000E+00  0.0000E+00  0.4000E+01  0.4000E+01
    -37.189  0.0000E+00  0.0000E+00  0.4000E+01  0.4000E+01
    -36.962  0.0000E+00  0.0000E+00  0.4000E+01  0.4000E+01
    -36.735  0.0000E+00  0.0000E+00  0.4000E+01  0.4000E+01
    -36.507  0.0000E+00  0.0000E+00  0.4000E+01  0.4000E+01
    -36.280  0.0000E+00  0.0000E+00  0.4000E+01  0.4000E+01
    -36.053  0.0000E+00  0.0000E+00  0.4000E+01  0.4000E+01
    -35.825  0.0000E+00  0.0000E+00  0.4000E+01  0.4000E+01
    -35.598  0.0000E+00  0.0000E+00  0.4000E+01  0.4000E+01
    -35.371  0.0000E+00  0.0000E+00  0.4000E+01  0.4000E+01
    -35.143  0.0000E+00  0.0000E+00  0.4000E+01  0.4000E+01
    -34.916  0.0000E+00  0.0000E+00  0.4000E+01  0.4000E+01
    -34.689  0.0000E+00  0.0000E+00  0.4000E+01  0.4000E+01
    -34.461  0.0000E+00  0.0000E+00  0.4000E+01  0.4000E+01
    -34.234  0.0000E+00  0.0000E+00  0.4000E+01  0.4000E+01
    -34.007  0.0000E+00  0.0000E+00  0.4000E+01  0.4000E+01
    -33.779  0.0000E+00  0.0000E+00  0.4000E+01  0.4000E+01
    -33.552  0.0000E+00  0.0000E+00  0.4000E+01  0.4000E+01
    -33.325  0.1463E+03  0.0000E+00  0.9896E+01  0.4000E+01
    -33.097  0.0000E+00  0.1328E+02  0.1600E+02  0.7163E+01
    -32.870  0.0000E+00  0.0000E+00  0.1600E+02  0.1600E+02
    -32.643  0.0000E+00  0.0000E+00  0.1600E+02  0.1600E+02
    -32.416  0.0000E+00  0.0000E+00  0.1600E+02  0.1600E+02
    -32.188  0.0000E+00  0.0000E+00  0.1600E+02  0.1600E+02
    -31.961  0.0000E+00  0.0000E+00  0.1600E+02  0.1600E+02
    -31.734  0.0000E+00  0.0000E+00  0.1600E+02  0.1600E+02
    -31.506  0.0000E+00  0.0000E+00  0.1600E+02  0.1600E+02
    -31.279  0.0000E+00  0.0000E+00  0.1600E+02  0.1600E+02
    -31.052  0.0000E+00  0.0000E+00  0.1600E+02  0.1600E+02
    -30.824  0.0000E+00  0.0000E+00  0.1600E+02  0.1600E+02
    -30.597  0.0000E+00  0.0000E+00  0.1600E+02  0.1600E+02
    -30.370  0.0000E+00  0.0000E+00  0.1600E+02  0.1600E+02
    -30.142  0.0000E+00  0.0000E+00  0.1600E+02  0.1600E+02
    -29.915  0.0000E+00  0.0000E+00  0.1600E+02  0.1600E+02
    -29.688  0.0000E+00  0.0000E+00  0.1600E+02  0.1600E+02
    -29.460  0.0000E+00  0.0000E+00  0.1600E+02  0.1600E+02
    -29.233  0.0000E+00  0.0000E+00  0.1600E+02  0.1600E+02
    -29.006  0.0000E+00  0.0000E+00  0.1600E+02  0.1600E+02
    -28.778  0.0000E+00  0.0000E+00  0.1600E+02  0.1600E+02
    -28.551  0.0000E+00  0.0000E+00  0.1600E+02  0.1600E+02
    -28.324  0.0000E+00  0.0000E+00  0.1600E+02  0.1600E+02
    -28.096  0.0000E+00  0.0000E+00  0.1600E+02  0.1600E+02
    -27.869  0.0000E+00  0.0000E+00  0.1600E+02  0.1600E+02
    -27.642  0.0000E+00  0.0000E+00  0.1600E+02  0.1600E+02
    -27.414  0.0000E+00  0.0000E+00  0.1600E+02  0.1600E+02
    -27.187  0.0000E+00  0.0000E+00  0.1600E+02  0.1600E+02
    -26.960  0.0000E+00  0.0000E+00  0.1600E+02  0.1600E+02
    -26.732  0.0000E+00  0.0000E+00  0.1600E+02  0.1600E+02
    -26.505  0.0000E+00  0.0000E+00  0.1600E+02  0.1600E+02
    -26.278  0.0000E+00  0.0000E+00  0.1600E+02  0.1600E+02
    -26.051  0.0000E+00  0.0000E+00  0.1600E+02  0.1600E+02
    -25.823  0.0000E+00  0.0000E+00  0.1600E+02  0.1600E+02
    -25.596  0.0000E+00  0.0000E+00  0.1600E+02  0.1600E+02
    -25.369  0.0000E+00  0.0000E+00  0.1600E+02  0.1600E+02
    -25.141  0.0000E+00  0.0000E+00  0.1600E+02  0.1600E+02
    -24.914  0.0000E+00  0.0000E+00  0.1600E+02  0.1600E+02
    -24.687  0.0000E+00  0.0000E+00  0.1600E+02  0.1600E+02
    -24.459  0.0000E+00  0.0000E+00  0.1600E+02  0.1600E+02
    -24.232  0.0000E+00  0.0000E+00  0.1600E+02  0.1600E+02
    -24.005  0.0000E+00  0.0000E+00  0.1600E+02  0.1600E+02
    -23.777  0.0000E+00  0.0000E+00  0.1600E+02  0.1600E+02
    -23.550  0.0000E+00  0.0000E+00  0.1600E+02  0.1600E+02
    -23.323  0.0000E+00  0.0000E+00  0.1600E+02  0.1600E+02
    -23.095  0.0000E+00  0.0000E+00  0.1600E+02  0.1600E+02
    -22.868  0.0000E+00  0.0000E+00  0.1600E+02  0.1600E+02
    -22.641  0.0000E+00  0.0000E+00  0.1600E+02  0.1600E+02
    -22.413  0.0000E+00  0.0000E+00  0.1600E+02  0.1600E+02
    -22.186  0.0000E+00  0.0000E+00  0.1600E+02  0.1600E+02
    -21.959  0.0000E+00  0.0000E+00  0.1600E+02  0.1600E+02
    -21.731  0.0000E+00  0.0000E+00  0.1600E+02  0.1600E+02
    -21.504  0.0000E+00  0.0000E+00  0.1600E+02  0.1600E+02
    -21.277  0.0000E+00  0.0000E+00  0.1600E+02  0.1600E+02
    -21.049  0.0000E+00  0.0000E+00  0.1600E+02  0.1600E+02
    -20.822  0.0000E+00  0.0000E+00  0.1600E+02  0.1600E+02
    -20.595  0.0000E+00  0.0000E+00  0.1600E+02  0.1600E+02
    -20.367  0.0000E+00  0.0000E+00  0.1600E+02  0.1600E+02
    -20.140  0.0000E+00  0.0000E+00  0.1600E+02  0.1600E+02
    -19.913  0.0000E+00  0.0000E+00  0.1600E+02  0.1600E+02
    -19.686  0.0000E+00  0.0000E+00  0.1600E+02  0.1600E+02
    -19.458  0.0000E+00  0.0000E+00  0.1600E+02  0.1600E+02
    -19.231  0.0000E+00  0.0000E+00  0.1600E+02  0.1600E+02
    -19.004  0.0000E+00  0.0000E+00  0.1600E+02  0.1600E+02
    -18.776  0.0000E+00  0.0000E+00  0.1600E+02  0.1600E+02
    -18.549  0.0000E+00  0.0000E+00  0.1600E+02  0.1600E+02
    -18.322  0.0000E+00  0.0000E+00  0.1600E+02  0.1600E+02
    -18.094  0.0000E+00  0.0000E+00  0.1600E+02  0.1600E+02
    -17.867  0.0000E+00  0.0000E+00  0.1600E+02  0.1600E+02
    -17.640  0.0000E+00  0.0000E+00  0.1600E+02  0.1600E+02
    -17.412  0.0000E+00  0.0000E+00  0.1600E+02  0.1600E+02
    -17.185  0.0000E+00  0.0000E+00  0.1600E+02  0.1600E+02
    -16.958  0.0000E+00  0.0000E+00  0.1600E+02  0.1600E+02
    -16.730  0.0000E+00  0.0000E+00  0.1600E+02  0.1600E+02
    -16.503  0.0000E+00  0.0000E+00  0.1600E+02  0.1600E+02
    -16.276  0.0000E+00  0.0000E+00  0.1600E+02  0.1600E+02
    -16.048  0.0000E+00  0.0000E+00  0.1600E+02  0.1600E+02
    -15.821  0.0000E+00  0.0000E+00  0.1600E+02  0.1600E+02
    -15.594  0.1116E+01  0.1148E-01  0.1604E+02  0.1600E+02
    -15.366  0.1432E+01  0.1525E+01  0.1635E+02  0.1630E+02
    -15.139  0.1627E+01  0.1612E+01  0.1670E+02  0.1665E+02
    -14.912  0.2104E+01  0.1616E+01  0.1708E+02  0.1702E+02
    -14.684  0.2042E+01  0.2004E+01  0.1756E+02  0.1750E+02
    -14.457  0.1025E+02  0.4199E+01  0.1870E+02  0.1861E+02
    -14.230  0.9193E+01  0.9678E+01  0.2098E+02  0.2080E+02
    -14.002  0.9593E+01  0.1263E+02  0.2357E+02  0.2338E+02
    -13.775  0.0000E+00  0.0000E+00  0.2400E+02  0.2400E+02
    -13.548  0.0000E+00  0.0000E+00  0.2400E+02  0.2400E+02
    -13.320  0.0000E+00  0.0000E+00  0.2400E+02  0.2400E+02
    -13.093  0.0000E+00  0.0000E+00  0.2400E+02  0.2400E+02
    -12.866  0.0000E+00  0.0000E+00  0.2400E+02  0.2400E+02
    -12.639  0.0000E+00  0.0000E+00  0.2400E+02  0.2400E+02
    -12.411  0.0000E+00  0.0000E+00  0.2400E+02  0.2400E+02
    -12.184  0.0000E+00  0.0000E+00  0.2400E+02  0.2400E+02
    -11.957  0.0000E+00  0.0000E+00  0.2400E+02  0.2400E+02
    -11.729  0.0000E+00  0.0000E+00  0.2400E+02  0.2400E+02
    -11.502  0.0000E+00  0.0000E+00  0.2400E+02  0.2400E+02
    -11.275  0.0000E+00  0.0000E+00  0.2400E+02  0.2400E+02
    -11.047  0.0000E+00  0.0000E+00  0.2400E+02  0.2400E+02
    -10.820  0.0000E+00  0.0000E+00  0.2400E+02  0.2400E+02
    -10.593  0.0000E+00  0.0000E+00  0.2400E+02  0.2400E+02
    -10.365  0.0000E+00  0.0000E+00  0.2400E+02  0.2400E+02
    -10.138  0.0000E+00  0.0000E+00  0.2400E+02  0.2400E+02
     -9.911  0.0000E+00  0.0000E+00  0.2400E+02  0.2400E+02
     -9.683  0.0000E+00  0.0000E+00  0.2400E+02  0.2400E+02
     -9.456  0.0000E+00  0.0000E+00  0.2400E+02  0.2400E+02
     -9.229  0.0000E+00  0.0000E+00  0.2400E+02  0.2400E+02
     -9.001  0.0000E+00  0.0000E+00  0.2400E+02  0.2400E+02
     -8.774  0.0000E+00  0.0000E+00  0.2400E+02  0.2400E+02
     -8.547  0.0000E+00  0.0000E+00  0.2400E+02  0.2400E+02
     -8.319  0.0000E+00  0.0000E+00  0.2400E+02  0.2400E+02
     -8.092  0.0000E+00  0.0000E+00  0.2400E+02  0.2400E+02
     -7.865  0.0000E+00  0.0000E+00  0.2400E+02  0.2400E+02
     -7.637  0.0000E+00  0.0000E+00  0.2400E+02  0.2400E+02
     -7.410  0.0000E+00  0.0000E+00  0.2400E+02  0.2400E+02
     -7.183  0.0000E+00  0.0000E+00  0.2400E+02  0.2400E+02
     -6.955  0.2618E+01  0.0000E+00  0.2423E+02  0.2400E+02
     -6.728  0.3748E+01  0.3217E+01  0.2501E+02  0.2451E+02
     -6.501  0.5092E+01  0.4111E+01  0.2599E+02  0.2535E+02
     -6.274  0.1107E+02  0.6682E+01  0.2770E+02  0.2681E+02
     -6.046  0.3712E+01  0.6002E+01  0.2920E+02  0.2892E+02
     -5.819  0.1901E+01  0.2042E+01  0.2981E+02  0.2969E+02
     -5.592  0.6235E+01  0.2258E+01  0.3069E+02  0.3013E+02
     -5.364  0.1252E+02  0.2180E+02  0.3348E+02  0.3175E+02
     -5.137  0.3038E+01  0.2641E+00  0.3402E+02  0.3399E+02
     -4.910  0.1427E+01  0.2585E+01  0.3478E+02  0.3455E+02
     -4.682  0.7528E+01  0.3806E+01  0.3547E+02  0.3505E+02
     -4.455  0.3096E+01  0.9533E+01  0.3802E+02  0.3722E+02
     -4.228  0.3907E+01  0.4672E+01  0.3911E+02  0.3868E+02
     -4.000  0.5223E+01  0.2838E+01  0.4010E+02  0.3953E+02
     -3.773  0.6919E+01  0.4356E+01  0.4100E+02  0.4050E+02
     -3.546  0.1532E+02  0.6279E+01  0.4268E+02  0.4149E+02
     -3.318  0.3781E+01  0.8471E+01  0.4472E+02  0.4420E+02
     -3.091  0.5998E+01  0.7855E+01  0.4634E+02  0.4586E+02
     -2.864  0.5388E+01  0.3106E+01  0.4734E+02  0.4713E+02
     -2.636  0.0000E+00  0.0000E+00  0.4800E+02  0.4800E+02
     -2.409  0.1262E+02  0.0000E+00  0.4915E+02  0.4800E+02
     -2.182  0.4669E+01  0.3534E+01  0.5054E+02  0.4804E+02
     -1.954  0.3214E+01  0.5131E+01  0.5132E+02  0.4973E+02
     -1.727  0.1502E+01  0.4091E+01  0.5188E+02  0.5085E+02
     -1.500  0.0000E+00  0.3192E+01  0.5200E+02  0.5152E+02
     -1.272  0.0000E+00  0.1736E+01  0.5200E+02  0.5199E+02
     -1.045  0.0000E+00  0.0000E+00  0.5200E+02  0.5200E+02
     -0.818  0.0000E+00  0.0000E+00  0.5200E+02  0.5200E+02
     -0.590  0.0000E+00  0.0000E+00  0.5200E+02  0.5200E+02
     -0.363  0.5903E+00  0.0000E+00  0.5202E+02  0.5200E+02
     -0.136  0.1205E+01  0.0000E+00  0.5224E+02  0.5200E+02
      0.091  0.9650E+01  0.4787E+00  0.5303E+02  0.5201E+02
      0.319  0.3589E+01  0.6692E+01  0.5567E+02  0.5237E+02
      0.546  0.1315E+02  0.1751E+02  0.5859E+02  0.5490E+02
      0.773  0.4712E+01  0.1438E+02  0.6034E+02  0.5786E+02
      1.001  0.2618E+01  0.1403E+02  0.6156E+02  0.6034E+02
      1.228  0.5099E+01  0.2323E+01  0.6267E+02  0.6175E+02
      1.455  0.2997E+01  0.4655E+01  0.6372E+02  0.6323E+02
      1.683  0.6029E+01  0.4723E+01  0.6472E+02  0.6426E+02
      1.910  0.1755E+01  0.2625E+01  0.6515E+02  0.6497E+02
      2.137  0.2707E+02  0.5654E+01  0.6638E+02  0.6557E+02
      2.365  0.1820E+01  0.6361E+01  0.6793E+02  0.6746E+02
      2.592  0.2610E+00  0.4206E+00  0.6804E+02  0.6779E+02
      2.819  0.3507E+00  0.8296E+00  0.6811E+02  0.6795E+02
      3.047  0.5315E+00  0.5034E+00  0.6821E+02  0.6815E+02
      3.274  0.1405E+01  0.1511E+01  0.6839E+02  0.6831E+02
      3.501  0.2106E+01  0.1970E+01  0.6881E+02  0.6868E+02
      3.729  0.2721E+01  0.2183E+01  0.6935E+02  0.6917E+02
      3.956  0.3049E+01  0.2715E+01  0.7002E+02  0.6972E+02
      4.183  0.5241E+01  0.3036E+01  0.7083E+02  0.7044E+02
      4.411  0.2357E+01  0.2267E+01  0.7154E+02  0.7123E+02
      4.638  0.0000E+00  0.3494E+01  0.7200E+02  0.7175E+02
      4.865  0.0000E+00  0.0000E+00  0.7200E+02  0.7200E+02
      5.093  0.0000E+00  0.0000E+00  0.7200E+02  0.7200E+02
      5.320  0.0000E+00  0.0000E+00  0.7200E+02  0.7200E+02
      5.547  0.0000E+00  0.0000E+00  0.7200E+02  0.7200E+02
      5.775  0.0000E+00  0.0000E+00  0.7200E+02  0.7200E+02
      6.002  0.0000E+00  0.0000E+00  0.7200E+02  0.7200E+02
      6.229  0.0000E+00  0.0000E+00  0.7200E+02  0.7200E+02
      6.457  0.0000E+00  0.0000E+00  0.7200E+02  0.7200E+02
      6.684  0.0000E+00  0.0000E+00  0.7200E+02  0.7200E+02
      6.911  0.0000E+00  0.0000E+00  0.7200E+02  0.7200E+02
      7.138  0.0000E+00  0.0000E+00  0.7200E+02  0.7200E+02
      7.366  0.0000E+00  0.0000E+00  0.7200E+02  0.7200E+02
      7.593  0.0000E+00  0.0000E+00  0.7200E+02  0.7200E+02
      7.820  0.0000E+00  0.0000E+00  0.7200E+02  0.7200E+02
      7.82043739    -60.37612196  301     -2.03890310      1.00000000
    -60.376  0.0000E+00  0.0000E+00  0.0000E+00  0.0000E+00  0.0000E+00  0.0000E+00  0.0000E+00  0.0000E+00  0.0000E+00  0.0000E+00  0.0000E+00  0.0000E+00  0.0000E+00  0.0000E+00  0.0000E+00  0.0000E+00  0.0000E+00  0.0000E+00
    -60.149  0.0000E+00  0.0000E+00  0.0000E+00  0.0000E+00  0.0000E+00  0.0000E+00  0.0000E+00  0.0000E+00  0.0000E+00  0.0000E+00  0.0000E+00  0.0000E+00  0.0000E+00  0.0000E+00  0.0000E+00  0.0000E+00  0.0000E+00  0.0000E+00
    -59.921  0.0000E+00  0.0000E+00  0.0000E+00  0.0000E+00  0.0000E+00  0.0000E+00  0.0000E+00  0.0000E+00  0.0000E+00  0.0000E+00  0.0000E+00  0.0000E+00  0.0000E+00  0.0000E+00  0.0000E+00  0.0000E+00  0.0000E+00  0.0000E+00
    -59.694  0.0000E+00  0.0000E+00  0.0000E+00  0.0000E+00  0.0000E+00  0.0000E+00  0.0000E+00  0.0000E+00  0.0000E+00  0.0000E+00  0.0000E+00  0.0000E+00  0.0000E+00  0.0000E+00  0.0000E+00  0.0000E+00  0.0000E+00  0.0000E+00
    -59.467  0.0000E+00  0.0000E+00  0.0000E+00  0.0000E+00  0.0000E+00  0.0000E+00  0.0000E+00  0.0000E+00  0.0000E+00  0.0000E+00  0.0000E+00  0.0000E+00  0.0000E+00  0.0000E+00  0.0000E+00  0.0000E+00  0.0000E+00  0.0000E+00
    -59.240  0.0000E+00  0.0000E+00  0.0000E+00  0.0000E+00  0.0000E+00  0.0000E+00  0.0000E+00  0.0000E+00  0.0000E+00  0.0000E+00  0.0000E+00  0.0000E+00  0.0000E+00  0.0000E+00  0.0000E+00  0.0000E+00  0.0000E+00  0.0000E+00
    -59.012  0.0000E+00  0.0000E+00  0.0000E+00  0.0000E+00  0.0000E+00  0.0000E+00  0.0000E+00  0.0000E+00  0.0000E+00  0.0000E+00  0.0000E+00  0.0000E+00  0.0000E+00  0.0000E+00  0.0000E+00  0.0000E+00  0.0000E+00  0.0000E+00
    -58.785  0.0000E+00  0.0000E+00  0.0000E+00  0.0000E+00  0.0000E+00  0.0000E+00  0.0000E+00  0.0000E+00  0.0000E+00  0.0000E+00  0.0000E+00  0.0000E+00  0.0000E+00  0.0000E+00  0.0000E+00  0.0000E+00  0.0000E+00  0.0000E+00
    -58.558  0.0000E+00  0.0000E+00  0.0000E+00  0.0000E+00  0.0000E+00  0.0000E+00  0.0000E+00  0.0000E+00  0.0000E+00  0.0000E+00  0.0000E+00  0.0000E+00  0.0000E+00  0.0000E+00  0.0000E+00  0.0000E+00  0.0000E+00  0.0000E+00
    -58.330  0.0000E+00  0.0000E+00  0.0000E+00  0.0000E+00  0.0000E+00  0.0000E+00  0.0000E+00  0.0000E+00  0.0000E+00  0.0000E+00  0.0000E+00  0.0000E+00  0.0000E+00  0.0000E+00  0.0000E+00  0.0000E+00  0.0000E+00  0.0000E+00
    -58.103  0.0000E+00  0.0000E+00  0.0000E+00  0.0000E+00  0.0000E+00  0.0000E+00  0.0000E+00  0.0000E+00  0.0000E+00  0.0000E+00  0.0000E+00  0.0000E+00  0.0000E+00  0.0000E+00  0.0000E+00  0.0000E+00  0.0000E+00  0.0000E+00
    -57.876  0.0000E+00  0.0000E+00  0.0000E+00  0.0000E+00  0.0000E+00  0.0000E+00  0.0000E+00  0.0000E+00  0.0000E+00  0.0000E+00  0.0000E+00  0.0000E+00  0.0000E+00  0.0000E+00  0.0000E+00  0.0000E+00  0.0000E+00  0.0000E+00
    -57.648  0.0000E+00  0.0000E+00  0.0000E+00  0.0000E+00  0.0000E+00  0.0000E+00  0.0000E+00  0.0000E+00  0.0000E+00  0.0000E+00  0.0000E+00  0.0000E+00  0.0000E+00  0.0000E+00  0.0000E+00  0.0000E+00  0.0000E+00  0.0000E+00
    -57.421  0.0000E+00  0.0000E+00  0.0000E+00  0.0000E+00  0.0000E+00  0.0000E+00  0.0000E+00  0.0000E+00  0.0000E+00  0.0000E+00  0.0000E+00  0.0000E+00  0.0000E+00  0.0000E+00  0.0000E+00  0.0000E+00  0.0000E+00  0.0000E+00
    -57.194  0.0000E+00  0.0000E+00  0.0000E+00  0.0000E+00  0.0000E+00  0.0000E+00  0.0000E+00  0.0000E+00  0.0000E+00  0.0000E+00  0.0000E+00  0.0000E+00  0.0000E+00  0.0000E+00  0.0000E+00  0.0000E+00  0.0000E+00  0.0000E+00
    -56.966  0.0000E+00  0.0000E+00  0.0000E+00  0.0000E+00  0.0000E+00  0.0000E+00  0.0000E+00  0.0000E+00  0.0000E+00  0.0000E+00  0.0000E+00  0.0000E+00  0.0000E+00  0.0000E+00  0.0000E+00  0.0000E+00  0.0000E+00  0.0000E+00
    -56.739  0.0000E+00  0.0000E+00  0.0000E+00  0.0000E+00  0.0000E+00  0.0000E+00  0.0000E+00  0.0000E+00  0.0000E+00  0.0000E+00  0.0000E+00  0.0000E+00  0.0000E+00  0.0000E+00  0.0000E+00  0.0000E+00  0.0000E+00  0.0000E+00
    -56.512  0.0000E+00  0.0000E+00  0.0000E+00  0.0000E+00  0.0000E+00  0.0000E+00  0.0000E+00  0.0000E+00  0.0000E+00  0.0000E+00  0.0000E+00  0.0000E+00  0.0000E+00  0.0000E+00  0.0000E+00  0.0000E+00  0.0000E+00  0.0000E+00
    -56.284  0.0000E+00  0.0000E+00  0.0000E+00  0.0000E+00  0.0000E+00  0.0000E+00  0.0000E+00  0.0000E+00  0.0000E+00  0.0000E+00  0.0000E+00  0.0000E+00  0.0000E+00  0.0000E+00  0.0000E+00  0.0000E+00  0.0000E+00  0.0000E+00
    -56.057  0.0000E+00  0.0000E+00  0.0000E+00  0.0000E+00  0.0000E+00  0.0000E+00  0.0000E+00  0.0000E+00  0.0000E+00  0.0000E+00  0.0000E+00  0.0000E+00  0.0000E+00  0.0000E+00  0.0000E+00  0.0000E+00  0.0000E+00  0.0000E+00
    -55.830  0.0000E+00  0.0000E+00  0.0000E+00  0.0000E+00  0.0000E+00  0.0000E+00  0.0000E+00  0.0000E+00  0.0000E+00  0.0000E+00  0.0000E+00  0.0000E+00  0.0000E+00  0.0000E+00  0.0000E+00  0.0000E+00  0.0000E+00  0.0000E+00
    -55.602  0.0000E+00  0.0000E+00  0.0000E+00  0.0000E+00  0.0000E+00  0.0000E+00  0.0000E+00  0.0000E+00  0.0000E+00  0.0000E+00  0.0000E+00  0.0000E+00  0.0000E+00  0.0000E+00  0.0000E+00  0.0000E+00  0.0000E+00  0.0000E+00
    -55.375  0.0000E+00  0.0000E+00  0.0000E+00  0.0000E+00  0.0000E+00  0.0000E+00  0.0000E+00  0.0000E+00  0.0000E+00  0.0000E+00  0.0000E+00  0.0000E+00  0.0000E+00  0.0000E+00  0.0000E+00  0.0000E+00  0.0000E+00  0.0000E+00
    -55.148  0.0000E+00  0.0000E+00  0.0000E+00  0.0000E+00  0.0000E+00  0.0000E+00  0.0000E+00  0.0000E+00  0.0000E+00  0.0000E+00  0.0000E+00  0.0000E+00  0.0000E+00  0.0000E+00  0.0000E+00  0.0000E+00  0.0000E+00  0.0000E+00
    -54.920  0.0000E+00  0.0000E+00  0.0000E+00  0.0000E+00  0.0000E+00  0.0000E+00  0.0000E+00  0.0000E+00  0.0000E+00  0.0000E+00  0.0000E+00  0.0000E+00  0.0000E+00  0.0000E+00  0.0000E+00  0.0000E+00  0.0000E+00  0.0000E+00
    -54.693  0.0000E+00  0.0000E+00  0.0000E+00  0.0000E+00  0.0000E+00  0.0000E+00  0.0000E+00  0.0000E+00  0.0000E+00  0.0000E+00  0.0000E+00  0.0000E+00  0.0000E+00  0.0000E+00  0.0000E+00  0.0000E+00  0.0000E+00  0.0000E+00
    -54.466  0.0000E+00  0.0000E+00  0.0000E+00  0.0000E+00  0.0000E+00  0.0000E+00  0.0000E+00  0.0000E+00  0.0000E+00  0.0000E+00  0.0000E+00  0.0000E+00  0.0000E+00  0.0000E+00  0.0000E+00  0.0000E+00  0.0000E+00  0.0000E+00
    -54.238  0.0000E+00  0.0000E+00  0.0000E+00  0.0000E+00  0.0000E+00  0.0000E+00  0.0000E+00  0.0000E+00  0.0000E+00  0.0000E+00  0.0000E+00  0.0000E+00  0.0000E+00  0.0000E+00  0.0000E+00  0.0000E+00  0.0000E+00  0.0000E+00
    -54.011  0.0000E+00  0.0000E+00  0.0000E+00  0.0000E+00  0.0000E+00  0.0000E+00  0.0000E+00  0.0000E+00  0.0000E+00  0.0000E+00  0.0000E+00  0.0000E+00  0.0000E+00  0.0000E+00  0.0000E+00  0.0000E+00  0.0000E+00  0.0000E+00
    -53.784  0.0000E+00  0.0000E+00  0.0000E+00  0.0000E+00  0.0000E+00  0.0000E+00  0.0000E+00  0.0000E+00  0.0000E+00  0.0000E+00  0.0000E+00  0.0000E+00  0.0000E+00  0.0000E+00  0.0000E+00  0.0000E+00  0.0000E+00  0.0000E+00
    -53.556  0.0000E+00  0.0000E+00  0.0000E+00  0.0000E+00  0.0000E+00  0.0000E+00  0.0000E+00  0.0000E+00  0.0000E+00  0.0000E+00  0.0000E+00  0.0000E+00  0.0000E+00  0.0000E+00  0.0000E+00  0.0000E+00  0.0000E+00  0.0000E+00
    -53.329  0.0000E+00  0.0000E+00  0.0000E+00  0.0000E+00  0.0000E+00  0.0000E+00  0.0000E+00  0.0000E+00  0.0000E+00  0.0000E+00  0.0000E+00  0.0000E+00  0.0000E+00  0.0000E+00  0.0000E+00  0.0000E+00  0.0000E+00  0.0000E+00
    -53.102  0.0000E+00  0.0000E+00  0.0000E+00  0.0000E+00  0.0000E+00  0.0000E+00  0.0000E+00  0.0000E+00  0.0000E+00  0.0000E+00  0.0000E+00  0.0000E+00  0.0000E+00  0.0000E+00  0.0000E+00  0.0000E+00  0.0000E+00  0.0000E+00
    -52.875  0.0000E+00  0.0000E+00  0.0000E+00  0.0000E+00  0.0000E+00  0.0000E+00  0.0000E+00  0.0000E+00  0.0000E+00  0.0000E+00  0.0000E+00  0.0000E+00  0.0000E+00  0.0000E+00  0.0000E+00  0.0000E+00  0.0000E+00  0.0000E+00
    -52.647  0.0000E+00  0.0000E+00  0.0000E+00  0.0000E+00  0.0000E+00  0.0000E+00  0.0000E+00  0.0000E+00  0.0000E+00  0.0000E+00  0.0000E+00  0.0000E+00  0.0000E+00  0.0000E+00  0.0000E+00  0.0000E+00  0.0000E+00  0.0000E+00
    -52.420  0.0000E+00  0.0000E+00  0.0000E+00  0.0000E+00  0.0000E+00  0.0000E+00  0.0000E+00  0.0000E+00  0.0000E+00  0.0000E+00  0.0000E+00  0.0000E+00  0.0000E+00  0.0000E+00  0.0000E+00  0.0000E+00  0.0000E+00  0.0000E+00
    -52.193  0.0000E+00  0.0000E+00  0.0000E+00  0.0000E+00  0.0000E+00  0.0000E+00  0.0000E+00  0.0000E+00  0.0000E+00  0.0000E+00  0.0000E+00  0.0000E+00  0.0000E+00  0.0000E+00  0.0000E+00  0.0000E+00  0.0000E+00  0.0000E+00
    -51.965  0.0000E+00  0.0000E+00  0.0000E+00  0.0000E+00  0.0000E+00  0.0000E+00  0.0000E+00  0.0000E+00  0.0000E+00  0.0000E+00  0.0000E+00  0.0000E+00  0.0000E+00  0.0000E+00  0.0000E+00  0.0000E+00  0.0000E+00  0.0000E+00
    -51.738  0.0000E+00  0.0000E+00  0.0000E+00  0.0000E+00  0.0000E+00  0.0000E+00  0.0000E+00  0.0000E+00  0.0000E+00  0.0000E+00  0.0000E+00  0.0000E+00  0.0000E+00  0.0000E+00  0.0000E+00  0.0000E+00  0.0000E+00  0.0000E+00
    -51.511  0.0000E+00  0.0000E+00  0.0000E+00  0.0000E+00  0.0000E+00  0.0000E+00  0.0000E+00  0.0000E+00  0.0000E+00  0.0000E+00  0.0000E+00  0.0000E+00  0.0000E+00  0.0000E+00  0.0000E+00  0.0000E+00  0.0000E+00  0.0000E+00
    -51.283  0.0000E+00  0.0000E+00  0.0000E+00  0.0000E+00  0.0000E+00  0.0000E+00  0.0000E+00  0.0000E+00  0.0000E+00  0.0000E+00  0.0000E+00  0.0000E+00  0.0000E+00  0.0000E+00  0.0000E+00  0.0000E+00  0.0000E+00  0.0000E+00
    -51.056  0.0000E+00  0.0000E+00  0.0000E+00  0.0000E+00  0.0000E+00  0.0000E+00  0.0000E+00  0.0000E+00  0.0000E+00  0.0000E+00  0.0000E+00  0.0000E+00  0.0000E+00  0.0000E+00  0.0000E+00  0.0000E+00  0.0000E+00  0.0000E+00
    -50.829  0.0000E+00  0.0000E+00  0.0000E+00  0.0000E+00  0.0000E+00  0.0000E+00  0.0000E+00  0.0000E+00  0.0000E+00  0.0000E+00  0.0000E+00  0.0000E+00  0.0000E+00  0.0000E+00  0.0000E+00  0.0000E+00  0.0000E+00  0.0000E+00
    -50.601  0.0000E+00  0.0000E+00  0.0000E+00  0.0000E+00  0.0000E+00  0.0000E+00  0.0000E+00  0.0000E+00  0.0000E+00  0.0000E+00  0.0000E+00  0.0000E+00  0.0000E+00  0.0000E+00  0.0000E+00  0.0000E+00  0.0000E+00  0.0000E+00
    -50.374  0.0000E+00  0.0000E+00  0.0000E+00  0.0000E+00  0.0000E+00  0.0000E+00  0.0000E+00  0.0000E+00  0.0000E+00  0.0000E+00  0.0000E+00  0.0000E+00  0.0000E+00  0.0000E+00  0.0000E+00  0.0000E+00  0.0000E+00  0.0000E+00
    -50.147  0.0000E+00  0.0000E+00  0.0000E+00  0.0000E+00  0.0000E+00  0.0000E+00  0.0000E+00  0.0000E+00  0.0000E+00  0.0000E+00  0.0000E+00  0.0000E+00  0.0000E+00  0.0000E+00  0.0000E+00  0.0000E+00  0.0000E+00  0.0000E+00
    -49.919  0.0000E+00  0.0000E+00  0.0000E+00  0.0000E+00  0.0000E+00  0.0000E+00  0.0000E+00  0.0000E+00  0.0000E+00  0.0000E+00  0.0000E+00  0.0000E+00  0.0000E+00  0.0000E+00  0.0000E+00  0.0000E+00  0.0000E+00  0.0000E+00
    -49.692  0.0000E+00  0.0000E+00  0.0000E+00  0.0000E+00  0.0000E+00  0.0000E+00  0.0000E+00  0.0000E+00  0.0000E+00  0.0000E+00  0.0000E+00  0.0000E+00  0.0000E+00  0.0000E+00  0.0000E+00  0.0000E+00  0.0000E+00  0.0000E+00
    -49.465  0.0000E+00  0.0000E+00  0.0000E+00  0.0000E+00  0.0000E+00  0.0000E+00  0.0000E+00  0.0000E+00  0.0000E+00  0.0000E+00  0.0000E+00  0.0000E+00  0.0000E+00  0.0000E+00  0.0000E+00  0.0000E+00  0.0000E+00  0.0000E+00
    -49.237  0.0000E+00  0.0000E+00  0.0000E+00  0.0000E+00  0.0000E+00  0.0000E+00  0.0000E+00  0.0000E+00  0.0000E+00  0.0000E+00  0.0000E+00  0.0000E+00  0.0000E+00  0.0000E+00  0.0000E+00  0.0000E+00  0.0000E+00  0.0000E+00
    -49.010  0.0000E+00  0.0000E+00  0.0000E+00  0.0000E+00  0.0000E+00  0.0000E+00  0.0000E+00  0.0000E+00  0.0000E+00  0.0000E+00  0.0000E+00  0.0000E+00  0.0000E+00  0.0000E+00  0.0000E+00  0.0000E+00  0.0000E+00  0.0000E+00