Au                                      
   1.00000000000000     
     6.000000    0.000000    0.000000
     0.000000    6.000000    0.000000
     0.000000    0.000000   10.000000
   Au
     3
Direct
  0.500000  0.500000  0.250000
  0.500000  0.500000  0.500000
  0.500000  0.500000  0.750000
 
   12   12   20
 -.18000018480E+01 -.52868052621E+00 0.20520108824E+01 0.34653328683E+01 0.24399633480E+01
 0.14327211216E+00 -.10240976980E+01 0.14327211216E+00 0.24399633480E+01 0.34653328683E+01
 0.20520108824E+01 -.52868052621E+00 -.52868052621E+00 -.15290784504E+00 0.60644913338E+00
 0.10113737696E+01 0.68609301193E+00 -.14961164766E-01 -.36939425163E+00 -.14961164759E-01
 0.68609301194E+00 0.10113737696E+01 0.60644913337E+00 -.15290784504E+00 0.20520108824E+01
 0.60644913338E+00 -.22349141915E+01 -.34947680814E+01 -.17275522274E+01 0.14852242830E+01
 0.30667326337E+01 0.14852242830E+01 -.17275522274E+01 -.34947680814E+01 -.22349141915E+01
 0.60644913337E+00 0.34653328683E+01 0.10113737696E+01 -.34947680814E+01 -.44492796535E+01
 0.60179653573E+00 0.81068299456E+01 0.11658458329E+02 0.81068299456E+01 0.60179653573E+00
 -.44492796535E+01 -.34947680814E+01 0.10113737696E+01 0.24399633480E+01 0.68609301194E+00
 -.17275522274E+01 0.60179653573E+00 0.94280068324E+01 0.20008084224E+02 0.24751074914E+02
 0.20008084224E+02 0.94280068324E+01 0.60179653573E+00 -.17275522274E+01 0.68609301194E+00
 0.14327211217E+00 -.14961164760E-01 0.14852242830E+01 0.81068299456E+01 0.20008084224E+02
 0.32067569104E+02 0.37188985952E+02 0.32067569104E+02 0.20008084224E+02 0.81068299456E+01
 0.14852242830E+01 -.14961164757E-01 -.10240976980E+01 -.36939425162E+00 0.30667326337E+01
 0.11658458329E+02 0.24751074914E+02 0.37188985952E+02 0.42344580636E+02 0.37188985952E+02
 0.24751074914E+02 0.11658458329E+02 0.30667326337E+01 -.36939425162E+00 0.14327211217E+00
 -.14961164757E-01 0.14852242830E+01 0.81068299456E+01 0.20008084224E+02 0.32067569104E+02
 0.37188985952E+02 0.32067569104E+02 0.20008084224E+02 0.81068299456E+01 0.14852242830E+01
 -.14961164760E-01 0.24399633480E+01 0.68609301194E+00 -.17275522274E+01 0.60179653573E+00
 0.94280068324E+01 0.20008084224E+02 0.24751074914E+02 0.20008084224E+02 0.94280068324E+01
 0.60179653573E+00 -.17275522274E+01 0.68609301194E+00 0.34653328683E+01 0.10113737696E+01
 -.34947680814E+01 -.44492796535E+01 0.60179653573E+00 0.81068299456E+01 0.11658458329E+02
 0.81068299456E+01 0.60179653573E+00 -.44492796535E+01 -.34947680814E+01 0.10113737696E+01
 0.20520108824E+01 0.60644913337E+00 -.22349141915E+01 -.34947680814E+01 -.17275522274E+01
 0.14852242830E+01 0.30667326337E+01 0.14852242830E+01 -.17275522274E+01 -.34947680814E+01
 -.22349141915E+01 0.60644913338E+00 -.52868052621E+00 -.15290784504E+00 0.60644913337E+00
 0.10113737696E+01 0.68609301194E+00 -.14961164759E-01 -.36939425163E+00 -.14961164766E-01
 0.68609301193E+00 0.10113737696E+01 0.60644913338E+00 -.15290784504E+00 -.53533461070E+00
 -.13078064837E+00 0.57184027661E+00 0.57897797808E+00 -.51392180022E+00 -.20113761974E+01
 -.27068600854E+01 -.20113761974E+01 -.51392180022E+00 0.57897797809E+00 0.57184027661E+00
 -.13078064837E+00 -.13078064837E+00 -.25683318968E-01 0.16370624461E+00 0.19115849111E+00
 -.48424972507E-01 -.39310647415E+00 -.55504449140E+00 -.39310647415E+00 -.48424972505E-01
 0.19115849111E+00 0.16370624460E+00 -.25683318970E-01 0.57184027661E+00 0.16370624460E+00
 -.51907226757E+00 -.42901834993E+00 0.84200097952E+00 0.25211529939E+01 0.32939840664E+01
 0.25211529939E+01 0.84200097952E+00 -.42901834993E+00 -.51907226757E+00 0.16370624460E+00
 0.57897797809E+00 0.19115849111E+00 -.42901834993E+00 -.23664536913E+00 0.11560947107E+01
 0.29366525605E+01 0.37492006865E+01 0.29366525605E+01 0.11560947107E+01 -.23664536913E+00
 -.42901834993E+00 0.19115849111E+00 -.51392180022E+00 -.48424972505E-01 0.84200097952E+00
 0.11560947107E+01 0.42835770995E+00 -.76487635271E+00 -.13412087351E+01 -.76487635271E+00
 0.42835770995E+00 0.11560947107E+01 0.84200097952E+00 -.48424972502E-01 -.20113761974E+01
 -.39310647415E+00 0.25211529939E+01 0.29366525605E+01 -.76487635271E+00 -.60846741332E+01
 -.85834324065E+01 -.60846741332E+01 -.76487635271E+00 0.29366525605E+01 0.25211529939E+01
 -.39310647414E+00 -.27068600854E+01 -.55504449139E+00 0.32939840664E+01 0.37492006865E+01
 -.13412087351E+01 -.85834324065E+01 -.11977240656E+02 -.85834324065E+01 -.13412087351E+01
 0.37492006865E+01 0.32939840664E+01 -.55504449140E+00 -.20113761974E+01 -.39310647414E+00
 0.25211529939E+01 0.29366525605E+01 -.76487635271E+00 -.60846741332E+01 -.85834324065E+01
 -.60846741332E+01 -.76487635271E+00 0.29366525605E+01 0.25211529939E+01 -.39310647415E+00
 -.51392180022E+00 -.48424972504E-01 0.84200097953E+00 0.11560947107E+01 0.42835770995E+00
 -.76487635271E+00 -.13412087351E+01 -.76487635271E+00 0.42835770995E+00 0.11560947107E+01
 0.84200097952E+00 -.48424972508E-01 0.57897797808E+00 0.19115849111E+00 -.42901834993E+00
 -.23664536913E+00 0.11560947107E+01 0.29366525605E+01 0.37492006865E+01 0.29366525605E+01
 0.11560947107E+01 -.23664536913E+00 -.42901834993E+00 0.19115849111E+00 0.57184027661E+00
 0.16370624460E+00 -.51907226757E+00 -.42901834993E+00 0.84200097953E+00 0.25211529939E+01
 0.32939840664E+01 0.25211529939E+01 0.84200097952E+00 -.42901834993E+00 -.51907226757E+00
 0.16370624461E+00 -.13078064836E+00 -.25683318968E-01 0.16370624460E+00 0.19115849111E+00
 -.48424972502E-01 -.39310647414E+00 -.55504449140E+00 -.39310647415E+00 -.48424972510E-01
 0.19115849111E+00 0.16370624461E+00 -.25683318965E-01 0.22802625303E+01 0.68526823328E+00
 -.23775926818E+01 -.34981393696E+01 -.10813786716E+01 0.29303754834E+01 0.48726888757E+01
 0.29303754834E+01 -.10813786716E+01 -.34981393696E+01 -.23775926818E+01 0.68526823328E+00
 0.68526823328E+00 0.21566579528E+00 -.67017681015E+00 -.94063031408E+00 -.12609305763E+00
 0.11580455909E+01 0.17734336411E+01 0.11580455909E+01 -.12609305763E+00 -.94063031407E+00
 -.67017681014E+00 0.21566579528E+00 -.23775926818E+01 -.67017681015E+00 0.26304648746E+01
 0.39117177984E+01 0.14661642676E+01 -.26868065085E+01 -.47061966365E+01 -.26868065085E+01
 0.14661642676E+01 0.39117177984E+01 0.26304648746E+01 -.67017681014E+00 -.34981393696E+01
 -.94063031408E+00 0.39117177984E+01 0.54889269387E+01 0.12334876449E+01 -.55794601337E+01
 -.88545985519E+01 -.55794601337E+01 0.12334876449E+01 0.54889269387E+01 0.39117177984E+01
 -.94063031407E+00 -.10813786716E+01 -.12609305763E+00 0.14661642676E+01 0.12334876449E+01
 -.17794045277E+01 -.57475747428E+01 -.75725011632E+01 -.57475747428E+01 -.17794045277E+01
 0.12334876449E+01 0.14661642676E+01 -.12609305763E+00 0.29303754834E+01 0.11580455909E+01
 -.26868065085E+01 -.55794601337E+01 -.57475747428E+01 -.41433326340E+01 -.31911076945E+01
 -.41433326340E+01 -.57475747428E+01 -.55794601337E+01 -.26868065085E+01 0.11580455909E+01
 0.48726888757E+01 0.17734336411E+01 -.47061966365E+01 -.88545985519E+01 -.75725011632E+01
 -.31911076945E+01 -.85984023062E+00 -.31911076945E+01 -.75725011632E+01 -.88545985519E+01
 -.47061966365E+01 0.17734336411E+01 0.29303754834E+01 0.11580455909E+01 -.26868065085E+01
 -.55794601337E+01 -.57475747428E+01 -.41433326340E+01 -.31911076945E+01 -.41433326340E+01
 -.57475747428E+01 -.55794601337E+01 -.26868065085E+01 0.11580455909E+01 -.10813786716E+01
 -.12609305763E+00 0.14661642676E+01 0.12334876449E+01 -.17794045277E+01 -.57475747428E+01
 -.75725011632E+01 -.57475747428E+01 -.17794045277E+01 0.12334876449E+01 0.14661642676E+01
 -.12609305763E+00 -.34981393696E+01 -.94063031408E+00 0.39117177984E+01 0.54889269387E+01
 0.12334876449E+01 -.55794601337E+01 -.88545985519E+01 -.55794601337E+01 0.12334876449E+01
 0.54889269387E+01 0.39117177984E+01 -.94063031408E+00 -.23775926818E+01 -.67017681015E+00
 0.26304648746E+01 0.39117177984E+01 0.14661642676E+01 -.26868065085E+01 -.47061966365E+01
 -.26868065085E+01 0.14661642676E+01 0.39117177984E+01 0.26304648746E+01 -.67017681015E+00
 0.68526823328E+00 0.21566579528E+00 -.67017681015E+00 -.94063031408E+00 -.12609305763E+00
 0.11580455909E+01 0.17734336411E+01 0.11580455909E+01 -.12609305763E+00 -.94063031408E+00
 -.67017681015E+00 0.21566579528E+00 0.40405756361E+01 0.10416071373E+01 -.34780769817E+01
 -.96013254585E+00 0.11594408105E+02 0.27147916804E+02 0.34185544676E+02 0.27147916804E+02
 0.11594408105E+02 -.96013254585E+00 -.34780769817E+01 0.10416071373E+01 0.10416071373E+01
 0.27609918853E+00 -.85755163584E+00 -.14007252174E+00 0.31940428447E+01 0.72936642119E+01
 0.91447924506E+01 0.72936642119E+01 0.31940428447E+01 -.14007252174E+00 -.85755163583E+00
 0.27609918854E+00 -.34780769817E+01 -.85755163584E+00 0.31823546872E+01 0.13201461406E+01
 -.90647031914E+01 -.22070077256E+02 -.27972191824E+02 -.22070077256E+02 -.90647031914E+01
 0.13201461406E+01 0.31823546872E+01 -.85755163582E+00 -.96013254585E+00 -.14007252174E+00
 0.13201461406E+01 0.14688073421E+01 -.51414379249E+00 -.33171461709E+01 -.46286944174E+01
 -.33171461709E+01 -.51414379249E+00 0.14688073421E+01 0.13201461406E+01 -.14007252174E+00
 0.11594408105E+02 0.31940428447E+01 -.90647031914E+01 -.51414379249E+00 0.37246112388E+02
 0.83406775957E+02 0.10421612257E+03 0.83406775957E+02 0.37246112388E+02 -.51414379249E+00
 -.90647031914E+01 0.31940428447E+01 0.27147916804E+02 0.72936642119E+01 -.22070077256E+02
 -.33171461709E+01 0.83406775957E+02 0.18998502095E+03 0.23681172076E+03 0.18998502095E+03
 0.83406775957E+02 -.33171461709E+01 -.22070077256E+02 0.72936642119E+01 0.34185544676E+02
 0.91447924506E+01 -.27972191824E+02 -.46286944174E+01 0.10421612257E+03 0.23681172076E+03
 0.27703427974E+03 0.23681172076E+03 0.10421612257E+03 -.46286944174E+01 -.27972191824E+02
 0.91447924506E+01 0.27147916804E+02 0.72936642119E+01 -.22070077256E+02 -.33171461709E+01
 0.83406775957E+02 0.18998502095E+03 0.23681172076E+03 0.18998502095E+03 0.83406775957E+02
 -.33171461709E+01 -.22070077256E+02 0.72936642119E+01 0.11594408105E+02 0.31940428447E+01
 -.90647031914E+01 -.51414379249E+00 0.37246112388E+02 0.83406775957E+02 0.10421612257E+03
 0.83406775957E+02 0.37246112388E+02 -.51414379249E+00 -.90647031914E+01 0.31940428447E+01
 -.96013254585E+00 -.14007252174E+00 0.13201461406E+01 0.14688073421E+01 -.51414379249E+00
 -.33171461709E+01 -.46286944174E+01 -.33171461709E+01 -.51414379249E+00 0.14688073421E+01
 0.13201461406E+01 -.14007252174E+00 -.34780769817E+01 -.85755163583E+00 0.31823546872E+01
 0.13201461406E+01 -.90647031914E+01 -.22070077256E+02 -.27972191824E+02 -.22070077256E+02
 -.90647031914E+01 0.13201461406E+01 0.31823546872E+01 -.85755163583E+00 0.10416071373E+01
 0.27609918853E+00 -.85755163583E+00 -.14007252174E+00 0.31940428447E+01 0.72936642119E+01
 0.91447924506E+01 0.72936642119E+01 0.31940428447E+01 -.14007252174E+00 -.85755163583E+00
 0.27609918853E+00 0.20303907401E+01 0.23894261783E+00 -.35246463436E+00 0.90204701998E+01
 0.30149196743E+02 0.53069368199E+02 0.63033705854E+02 0.53069368199E+02 0.30149196743E+02
 0.90204701998E+01 -.35246463436E+00 0.23894261783E+00 0.23894261783E+00 -.20043676705E-01
 0.21725295671E+00 0.27769742248E+01 0.79181020967E+01 0.13318217034E+02 0.15640643750E+02
 0.13318217034E+02 0.79181020967E+01 0.27769742248E+01 0.21725295671E+00 -.20043676701E-01
 -.35246463436E+00 0.21725295671E+00 -.93539812002E+00 -.89198692274E+01 -.24305873471E+02
 -.40261594706E+02 -.47093415781E+02 -.40261594706E+02 -.24305873471E+02 -.89198692274E+01
 -.93539812001E+00 0.21725295672E+00 0.90204701998E+01 0.27769742248E+01 -.89198692274E+01
 -.12214476759E+02 -.86333789175E+00 0.16731329781E+02 0.25133600816E+02 0.16731329781E+02
 -.86333789175E+00 -.12214476759E+02 -.89198692274E+01 0.27769742248E+01 0.30149196743E+02
 0.79181020967E+01 -.24305873471E+02 -.86333789175E+00 0.10047688836E+03 0.22404828956E+03
 0.27972619218E+03 0.22404828956E+03 0.10047688836E+03 -.86333789175E+00 -.24305873471E+02
 0.79181020967E+01 0.53069368199E+02 0.13318217034E+02 -.40261594706E+02 0.16731329781E+02
 0.22404828956E+03 0.44647676124E+03 0.49092644430E+03 0.44647676124E+03 0.22404828956E+03
 0.16731329781E+02 -.40261594706E+02 0.13318217034E+02 0.63033705854E+02 0.15640643749E+02
 -.47093415781E+02 0.25133600816E+02 0.27972619218E+03 0.49092644430E+03 0.37112387003E+03
 0.49092644430E+03 0.27972619218E+03 0.25133600816E+02 -.47093415781E+02 0.15640643749E+02
 0.53069368199E+02 0.13318217034E+02 -.40261594706E+02 0.16731329781E+02 0.22404828956E+03
 0.44647676124E+03 0.49092644430E+03 0.44647676124E+03 0.22404828956E+03 0.16731329781E+02
 -.40261594706E+02 0.13318217034E+02 0.30149196743E+02 0.79181020967E+01 -.24305873471E+02
 -.86333789175E+00 0.10047688836E+03 0.22404828956E+03 0.27972619218E+03 0.22404828956E+03
 0.10047688836E+03 -.86333789175E+00 -.24305873471E+02 0.79181020967E+01 0.90204701998E+01
 0.27769742248E+01 -.89198692274E+01 -.12214476759E+02 -.86333789175E+00 0.16731329781E+02
 0.25133600816E+02 0.16731329781E+02 -.86333789175E+00 -.12214476759E+02 -.89198692274E+01
 0.27769742248E+01 -.35246463436E+00 0.21725295671E+00 -.93539812002E+00 -.89198692274E+01
 -.24305873471E+02 -.40261594706E+02 -.47093415781E+02 -.40261594706E+02 -.24305873471E+02
 -.89198692274E+01 -.93539812002E+00 0.21725295671E+00 0.23894261783E+00 -.20043676703E-01
 0.21725295671E+00 0.27769742248E+01 0.79181020967E+01 0.13318217034E+02 0.15640643749E+02
 0.13318217034E+02 0.79181020967E+01 0.27769742248E+01 0.21725295671E+00 -.20043676703E-01
 -.38727439054E+01 -.15177314939E+01 0.59794983952E+01 0.18736508041E+02 0.34398284280E+02
 0.47705043296E+02 0.52964817179E+02 0.47705043296E+02 0.34398284280E+02 0.18736508041E+02
 0.59794983952E+01 -.15177314939E+01 -.15177314939E+01 -.53795954273E+00 0.20825820188E+01
 0.55292230476E+01 0.88221893947E+01 0.11135386358E+02 0.11961489527E+02 0.11135386358E+02
 0.88221893947E+01 0.55292230475E+01 0.20825820187E+01 -.53795954274E+00 0.59794983952E+01
 0.20825820188E+01 -.76105904687E+01 -.18595933144E+02 -.26976524952E+02 -.31460199153E+02
 -.32752369507E+02 -.31460199153E+02 -.26976524952E+02 -.18595933144E+02 -.76105904687E+01
 0.20825820187E+01 0.18736508041E+02 0.55292230476E+01 -.18595933144E+02 -.23259001627E+02
 0.47473304881E+01 0.45961003250E+02 0.65423148510E+02 0.45961003250E+02 0.47473304881E+01
 -.23259001627E+02 -.18595933144E+02 0.55292230476E+01 0.34398284280E+02 0.88221893947E+01
 -.26976524952E+02 0.47473304881E+01 0.12956999622E+03 0.28009869529E+03 0.35240892573E+03
 0.28009869529E+03 0.12956999622E+03 0.47473304881E+01 -.26976524952E+02 0.88221893947E+01
 0.47705043296E+02 0.11135386358E+02 -.31460199153E+02 0.45961003250E+02 0.28009869529E+03
 0.54341080829E+03 0.65669240309E+03 0.54341080829E+03 0.28009869529E+03 0.45961003250E+02
 -.31460199153E+02 0.11135386358E+02 0.52964817179E+02 0.11961489527E+02 -.32752369507E+02
 0.65423148510E+02 0.35240892573E+03 0.65669240309E+03 0.60277477921E+03 0.65669240309E+03
 0.35240892573E+03 0.65423148510E+02 -.32752369507E+02 0.11961489527E+02 0.47705043296E+02
 0.11135386358E+02 -.31460199153E+02 0.45961003250E+02 0.28009869529E+03 0.54341080829E+03
 0.65669240309E+03 0.54341080829E+03 0.28009869529E+03 0.45961003250E+02 -.31460199153E+02
 0.11135386358E+02 0.34398284280E+02 0.88221893947E+01 -.26976524952E+02 0.47473304881E+01
 0.12956999622E+03 0.28009869529E+03 0.35240892573E+03 0.28009869529E+03 0.12956999622E+03
 0.47473304881E+01 -.26976524952E+02 0.88221893947E+01 0.18736508041E+02 0.55292230476E+01
 -.18595933144E+02 -.23259001627E+02 0.47473304881E+01 0.45961003250E+02 0.65423148510E+02
 0.45961003250E+02 0.47473304881E+01 -.23259001627E+02 -.18595933144E+02 0.55292230476E+01
 0.59794983952E+01 0.20825820188E+01 -.76105904687E+01 -.18595933144E+02 -.26976524952E+02
 -.31460199153E+02 -.32752369507E+02 -.31460199153E+02 -.26976524952E+02 -.18595933144E+02
 -.76105904687E+01 0.20825820188E+01 -.15177314939E+01 -.53795954273E+00 0.20825820188E+01
 0.55292230476E+01 0.88221893947E+01 0.11135386358E+02 0.11961489527E+02 0.11135386358E+02
 0.88221893947E+01 0.55292230475E+01 0.20825820188E+01 -.53795954273E+00 -.97162511644E+01
 -.30012065993E+01 0.11165435244E+02 0.20629326022E+02 0.18675422168E+02 0.10006469805E+02
 0.53037141701E+01 0.10006469805E+02 0.18675422168E+02 0.20629326022E+02 0.11165435244E+02
 -.30012065993E+01 -.30012065993E+01 -.89933747024E+00 0.34210307180E+01 0.59581729036E+01
 0.46102159325E+01 0.11603911981E+01 -.62283278416E+00 0.11603911981E+01 0.46102159325E+01
 0.59581729036E+01 0.34210307180E+01 -.89933747025E+00 0.11165435244E+02 0.34210307180E+01
 -.12111501003E+02 -.20019086275E+02 -.12557314902E+02 0.26488633963E+01 0.10273811511E+02
 0.26488633964E+01 -.12557314902E+02 -.20019086275E+02 -.12111501003E+02 0.34210307180E+01
 0.20629326022E+02 0.59581729036E+01 -.20019086275E+02 -.22131695288E+02 0.14291524548E+02
 0.65385947301E+02 0.89250648313E+02 0.65385947301E+02 0.14291524548E+02 -.22131695288E+02
 -.20019086275E+02 0.59581729036E+01 0.18675422168E+02 0.46102159325E+01 -.12557314902E+02
 0.14291524548E+02 0.99222074785E+02 0.19821803088E+03 0.24254910267E+03 0.19821803088E+03
 0.99222074785E+02 0.14291524548E+02 -.12557314902E+02 0.46102159325E+01 0.10006469805E+02
 0.11603911981E+01 0.26488633964E+01 0.65385947301E+02 0.19821803088E+03 0.33510280102E+03
 0.37430917009E+03 0.33510280102E+03 0.19821803088E+03 0.65385947301E+02 0.26488633964E+01
 0.11603911981E+01 0.53037141701E+01 -.62283278416E+00 0.10273811511E+02 0.89250648313E+02
 0.24254910267E+03 0.37430917009E+03 0.28950788962E+03 0.37430917009E+03 0.24254910267E+03
 0.89250648313E+02 0.10273811511E+02 -.62283278416E+00 0.10006469805E+02 0.11603911981E+01
 0.26488633964E+01 0.65385947301E+02 0.19821803088E+03 0.33510280102E+03 0.37430917009E+03
 0.33510280102E+03 0.19821803088E+03 0.65385947301E+02 0.26488633964E+01 0.11603911981E+01
 0.18675422168E+02 0.46102159325E+01 -.12557314902E+02 0.14291524548E+02 0.99222074785E+02
 0.19821803088E+03 0.24254910267E+03 0.19821803088E+03 0.99222074785E+02 0.14291524548E+02
 -.12557314902E+02 0.46102159325E+01 0.20629326022E+02 0.59581729036E+01 -.20019086275E+02
 -.22131695288E+02 0.14291524548E+02 0.65385947301E+02 0.89250648313E+02 0.65385947301E+02
 0.14291524548E+02 -.22131695288E+02 -.20019086275E+02 0.59581729036E+01 0.11165435244E+02
 0.34210307180E+01 -.12111501003E+02 -.20019086275E+02 -.12557314902E+02 0.26488633964E+01
 0.10273811511E+02 0.26488633964E+01 -.12557314902E+02 -.20019086275E+02 -.12111501003E+02
 0.34210307180E+01 -.30012065993E+01 -.89933747024E+00 0.34210307180E+01 0.59581729036E+01
 0.46102159325E+01 0.11603911981E+01 -.62283278416E+00 0.11603911981E+01 0.46102159325E+01
 0.59581729036E+01 0.34210307180E+01 -.89933747024E+00 -.99604842421E+01 -.28233762799E+01
 0.10705192565E+02 0.15059505724E+02 0.31024537811E+01 -.15991707380E+02 -.25165964560E+02
 -.15991707380E+02 0.31024537811E+01 0.15059505724E+02 0.10705192565E+02 -.28233762799E+01
 -.28233762799E+01 -.77528513516E+00 0.30895457368E+01 0.42742216197E+01 0.73064955741E+00
 -.48610154316E+01 -.75411719515E+01 -.48610154316E+01 0.73064955742E+00 0.42742216197E+01
 0.30895457368E+01 -.77528513516E+00 0.10705192565E+02 0.30895457368E+01 -.10949183899E+02
 -.14114122492E+02 0.12103780410E+01 0.24150528545E+02 0.35024322438E+02 0.24150528545E+02
 0.12103780411E+01 -.14114122492E+02 -.10949183899E+02 0.30895457368E+01 0.15059505724E+02
 0.42742216197E+01 -.14114122492E+02 -.13023177485E+02 0.18332359566E+02 0.60473209935E+02
 0.79952528855E+02 0.60473209935E+02 0.18332359566E+02 -.13023177485E+02 -.14114122492E+02
 0.42742216197E+01 0.31024537811E+01 0.73064955742E+00 0.12103780410E+01 0.18332359566E+02
 0.54468477610E+02 0.92976533611E+02 0.10961892315E+03 0.92976533611E+02 0.54468477610E+02
 0.18332359566E+02 0.12103780411E+01 0.73064955742E+00 -.15991707380E+02 -.48610154316E+01
 0.24150528545E+02 0.60473209935E+02 0.92976533611E+02 0.11434951432E+03 0.12096996595E+03
 0.11434951432E+03 0.92976533611E+02 0.60473209935E+02 0.24150528545E+02 -.48610154316E+01
 -.25165964560E+02 -.75411719515E+01 0.35024322438E+02 0.79952528855E+02 0.10961892315E+03
 0.12096996595E+03 0.11063057755E+03 0.12096996595E+03 0.10961892315E+03 0.79952528855E+02
 0.35024322438E+02 -.75411719515E+01 -.15991707380E+02 -.48610154316E+01 0.24150528545E+02
 0.60473209935E+02 0.92976533611E+02 0.11434951432E+03 0.12096996595E+03 0.11434951432E+03
 0.92976533611E+02 0.60473209935E+02 0.24150528545E+02 -.48610154316E+01 0.31024537811E+01
 0.73064955742E+00 0.12103780410E+01 0.18332359566E+02 0.54468477610E+02 0.92976533611E+02
 0.10961892315E+03 0.92976533611E+02 0.54468477610E+02 0.18332359566E+02 0.12103780410E+01
 0.73064955742E+00 0.15059505724E+02 0.42742216197E+01 -.14114122492E+02 -.13023177485E+02
 0.18332359566E+02 0.60473209935E+02 0.79952528855E+02 0.60473209935E+02 0.18332359566E+02
 -.13023177485E+02 -.14114122492E+02 0.42742216197E+01 0.10705192565E+02 0.30895457368E+01
 -.10949183899E+02 -.14114122492E+02 0.12103780410E+01 0.24150528545E+02 0.35024322438E+02
 0.24150528545E+02 0.12103780410E+01 -.14114122492E+02 -.10949183899E+02 0.30895457368E+01
 -.28233762799E+01 -.77528513516E+00 0.30895457368E+01 0.42742216197E+01 0.73064955742E+00
 -.48610154316E+01 -.75411719515E+01 -.48610154316E+01 0.73064955742E+00 0.42742216197E+01
 0.30895457368E+01 -.77528513516E+00 -.27976373671E+01 -.72458466555E+00 0.40013153161E+01
 0.82381907817E+01 0.99129869901E+01 0.95147299486E+01 0.90257049595E+01 0.95147299486E+01
 0.99129869901E+01 0.82381907817E+01 0.40013153161E+01 -.72458466554E+00 -.72458466554E+00
 -.17470811032E+00 0.11100970196E+01 0.23505950675E+01 0.29969081989E+01 0.30933422392E+01
 0.30490325407E+01 0.30933422392E+01 0.29969081989E+01 0.23505950676E+01 0.11100970196E+01
 -.17470811032E+00 0.40013153161E+01 0.11100970196E+01 -.46953096999E+01 -.76722527707E+01
 -.49295128682E+01 0.70444978553E+00 0.35329180036E+01 0.70444978553E+00 -.49295128682E+01
 -.76722527707E+01 -.46953096998E+01 0.11100970196E+01 0.82381907817E+01 0.23505950675E+01
 -.76722527707E+01 -.70200077522E+01 0.10194947023E+02 0.33297527804E+02 0.43972650891E+02
 0.33297527804E+02 0.10194947023E+02 -.70200077522E+01 -.76722527707E+01 0.23505950675E+01
 0.99129869901E+01 0.29969081989E+01 -.49295128682E+01 0.10194947023E+02 0.55286450376E+02
 0.10729416501E+03 0.13034517946E+03 0.10729416501E+03 0.55286450376E+02 0.10194947023E+02
 -.49295128682E+01 0.29969081989E+01 0.95147299486E+01 0.30933422392E+01 0.70444978553E+00
 0.33297527804E+02 0.10729416501E+03 0.18771248297E+03 0.22199068345E+03 0.18771248297E+03
 0.10729416501E+03 0.33297527804E+02 0.70444978553E+00 0.30933422392E+01 0.90257049596E+01
 0.30490325407E+01 0.35329180036E+01 0.43972650891E+02 0.13034517946E+03 0.22199068345E+03
 0.25674083869E+03 0.22199068345E+03 0.13034517946E+03 0.43972650891E+02 0.35329180036E+01
 0.30490325407E+01 0.95147299486E+01 0.30933422392E+01 0.70444978553E+00 0.33297527804E+02
 0.10729416501E+03 0.18771248297E+03 0.22199068345E+03 0.18771248297E+03 0.10729416501E+03
 0.33297527804E+02 0.70444978553E+00 0.30933422392E+01 0.99129869901E+01 0.29969081989E+01
 -.49295128682E+01 0.10194947023E+02 0.55286450376E+02 0.10729416501E+03 0.13034517946E+03
 0.10729416501E+03 0.55286450376E+02 0.10194947023E+02 -.49295128682E+01 0.29969081989E+01
 0.82381907817E+01 0.23505950675E+01 -.76722527707E+01 -.70200077522E+01 0.10194947023E+02
 0.33297527804E+02 0.43972650891E+02 0.33297527804E+02 0.10194947023E+02 -.70200077522E+01
 -.76722527707E+01 0.23505950675E+01 0.40013153161E+01 0.11100970196E+01 -.46953096999E+01
 -.76722527707E+01 -.49295128682E+01 0.70444978553E+00 0.35329180036E+01 0.70444978553E+00
 -.49295128682E+01 -.76722527707E+01 -.46953096999E+01 0.11100970196E+01 -.72458466555E+00
 -.17470811032E+00 0.11100970196E+01 0.23505950675E+01 0.29969081989E+01 0.30933422392E+01
 0.30490325407E+01 0.30933422392E+01 0.29969081989E+01 0.23505950675E+01 0.11100970196E+01
 -.17470811032E+00 0.69934916313E+01 0.19303166984E+01 -.44287424721E+01 0.45677954653E+01
 0.33983106744E+02 0.68461590422E+02 0.83817185815E+02 0.68461590422E+02 0.33983106744E+02
 0.45677954653E+01 -.44287424721E+01 0.19303166984E+01 0.19303166984E+01 0.52041696254E+00
 -.12171332559E+01 0.14119818042E+01 0.98176575028E+01 0.19633232833E+02 0.23999897128E+02
 0.19633232833E+02 0.98176575028E+01 0.14119818042E+01 -.12171332559E+01 0.52041696255E+00
 -.44287424721E+01 -.12171332559E+01 0.24001624593E+01 -.48600807162E+01 -.26209464242E+02
 -.50770449877E+02 -.61647980513E+02 -.50770449877E+02 -.26209464242E+02 -.48600807162E+01
 0.24001624593E+01 -.12171332559E+01 0.45677954653E+01 0.14119818042E+01 -.48600807162E+01
 -.78682138900E+01 -.44565686992E+01 0.21109530797E+01 0.53749446112E+01 0.21109530797E+01
 -.44565686992E+01 -.78682138900E+01 -.48600807162E+01 0.14119818042E+01 0.33983106744E+02
 0.98176575028E+01 -.26209464242E+02 -.44565686992E+01 0.99241972233E+02 0.22710624068E+03
 0.28413244208E+03 0.22710624068E+03 0.99241972233E+02 -.44565686992E+01 -.26209464242E+02
 0.98176575028E+01 0.68461590422E+02 0.19633232833E+02 -.50770449877E+02 0.21109530797E+01
 0.22710624068E+03 0.44132505070E+03 0.47707557772E+03 0.44132505070E+03 0.22710624068E+03
 0.21109530797E+01 -.50770449877E+02 0.19633232833E+02 0.83817185815E+02 0.23999897128E+02
 -.61647980513E+02 0.53749446112E+01 0.28413244208E+03 0.47707557772E+03 0.45436036696E+03
 0.47707557772E+03 0.28413244208E+03 0.53749446112E+01 -.61647980513E+02 0.23999897128E+02
 0.68461590422E+02 0.19633232833E+02 -.50770449877E+02 0.21109530797E+01 0.22710624068E+03
 0.44132505070E+03 0.47707557772E+03 0.44132505070E+03 0.22710624068E+03 0.21109530797E+01
 -.50770449877E+02 0.19633232833E+02 0.33983106744E+02 0.98176575028E+01 -.26209464242E+02
 -.44565686992E+01 0.99241972233E+02 0.22710624068E+03 0.28413244208E+03 0.22710624068E+03
 0.99241972233E+02 -.44565686992E+01 -.26209464242E+02 0.98176575028E+01 0.45677954653E+01
 0.14119818042E+01 -.48600807162E+01 -.78682138900E+01 -.44565686992E+01 0.21109530797E+01
 0.53749446112E+01 0.21109530797E+01 -.44565686992E+01 -.78682138900E+01 -.48600807162E+01
 0.14119818042E+01 -.44287424721E+01 -.12171332559E+01 0.24001624593E+01 -.48600807162E+01
 -.26209464242E+02 -.50770449877E+02 -.61647980513E+02 -.50770449877E+02 -.26209464242E+02
 -.48600807162E+01 0.24001624593E+01 -.12171332559E+01 0.19303166984E+01 0.52041696254E+00
 -.12171332559E+01 0.14119818042E+01 0.98176575028E+01 0.19633232833E+02 0.23999897128E+02
 0.19633232833E+02 0.98176575028E+01 0.14119818042E+01 -.12171332559E+01 0.52041696255E+00
 0.11537481393E+02 0.31319121757E+01 -.82259737983E+01 0.37202811650E+01 0.47376244208E+02
 0.99437773805E+02 0.12274191366E+03 0.99437773805E+02 0.47376244208E+02 0.37202811650E+01
 -.82259737983E+01 0.31319121757E+01 0.31319121757E+01 0.82493108252E+00 -.22405586909E+01
 0.12314273730E+01 0.13547869518E+02 0.28171293187E+02 0.34708767768E+02 0.28171293187E+02
 0.13547869518E+02 0.12314273730E+01 -.22405586909E+01 0.82493108253E+00 -.82259737983E+01
 -.22405586909E+01 0.54657431195E+01 -.44642681176E+01 -.38016000785E+02 -.77553138914E+02
 -.95189440195E+02 -.77553138914E+02 -.38016000785E+02 -.44642681176E+01 0.54657431195E+01
 -.22405586909E+01 0.37202811650E+01 0.12314273730E+01 -.44642681176E+01 -.96326765614E+01
 -.11784893961E+02 -.11448170703E+02 -.10920797037E+02 -.11448170703E+02 -.11784893961E+02
 -.96326765614E+01 -.44642681176E+01 0.12314273730E+01 0.47376244208E+02 0.13547869518E+02
 -.38016000785E+02 -.11784893961E+02 0.12606981138E+03 0.29680860701E+03 0.36853297303E+03
 0.29680860701E+03 0.12606981138E+03 -.11784893961E+02 -.38016000785E+02 0.13547869518E+02
 0.99437773805E+02 0.28171293187E+02 -.77553138914E+02 -.11448170703E+02 0.29680860701E+03
 0.50566223931E+03 0.50030239863E+03 0.50566223931E+03 0.29680860701E+03 -.11448170703E+02
 -.77553138914E+02 0.28171293187E+02 0.12274191366E+03 0.34708767768E+02 -.95189440195E+02
 -.10920797037E+02 0.36853297303E+03 0.50030239863E+03 0.29558341113E+03 0.50030239863E+03
 0.36853297303E+03 -.10920797037E+02 -.95189440195E+02 0.34708767768E+02 0.99437773805E+02
 0.28171293187E+02 -.77553138914E+02 -.11448170703E+02 0.29680860701E+03 0.50566223931E+03
 0.50030239863E+03 0.50566223931E+03 0.29680860701E+03 -.11448170703E+02 -.77553138914E+02
 0.28171293187E+02 0.47376244208E+02 0.13547869518E+02 -.38016000785E+02 -.11784893961E+02
 0.12606981138E+03 0.29680860701E+03 0.36853297303E+03 0.29680860701E+03 0.12606981138E+03
 -.11784893961E+02 -.38016000785E+02 0.13547869518E+02 0.37202811650E+01 0.12314273730E+01
 -.44642681176E+01 -.96326765614E+01 -.11784893961E+02 -.11448170703E+02 -.10920797037E+02
 -.11448170703E+02 -.11784893961E+02 -.96326765614E+01 -.44642681176E+01 0.12314273730E+01
 -.82259737983E+01 -.22405586909E+01 0.54657431195E+01 -.44642681176E+01 -.38016000785E+02
 -.77553138914E+02 -.95189440195E+02 -.77553138914E+02 -.38016000785E+02 -.44642681176E+01
 0.54657431195E+01 -.22405586909E+01 0.31319121757E+01 0.82493108253E+00 -.22405586909E+01
 0.12314273730E+01 0.13547869518E+02 0.28171293187E+02 0.34708767768E+02 0.28171293187E+02
 0.13547869518E+02 0.12314273730E+01 -.22405586909E+01 0.82493108252E+00 0.69934916313E+01
 0.19303166984E+01 -.44287424721E+01 0.45677954653E+01 0.33983106744E+02 0.68461590422E+02
 0.83817185815E+02 0.68461590422E+02 0.33983106744E+02 0.45677954653E+01 -.44287424721E+01
 0.19303166984E+01 0.19303166984E+01 0.52041696255E+00 -.12171332559E+01 0.14119818042E+01
 0.98176575028E+01 0.19633232833E+02 0.23999897128E+02 0.19633232833E+02 0.98176575028E+01
 0.14119818042E+01 -.12171332559E+01 0.52041696254E+00 -.44287424721E+01 -.12171332559E+01
 0.24001624593E+01 -.48600807162E+01 -.26209464242E+02 -.50770449877E+02 -.61647980513E+02
 -.50770449877E+02 -.26209464242E+02 -.48600807162E+01 0.24001624593E+01 -.12171332559E+01
 0.45677954653E+01 0.14119818042E+01 -.48600807162E+01 -.78682138900E+01 -.44565686992E+01
 0.21109530797E+01 0.53749446112E+01 0.21109530797E+01 -.44565686992E+01 -.78682138900E+01