NiO                                     
   4.17000000000000     
     1.000000    0.500000    0.500000
     0.500000    1.000000    0.500000
     0.500000    0.500000    1.000000
   Ni   O 
     2     2
Direct
  0.000000  0.000000  0.000000
  0.500000  0.500000  0.500000
  0.250000  0.250000  0.250000
  0.750000  0.750000  0.750000
 
   40   40   40
 0.50682953213E+03 0.47293591223E+03 0.38407161150E+03 0.27039172889E+03 0.16281494141E+03
 0.81840435538E+02 0.34753979851E+02 0.16126733334E+02 0.10942444123E+02 0.82176624804E+01
 0.69078008365E+01 0.63286791881E+01 0.61559961770E+01 0.62290725115E+01 0.62657606432E+01
 0.61246026183E+01 0.59637420759E+01 0.59084640579E+01 0.58385492224E+01 0.56707619350E+01
 0.55692877197E+01 0.56707619350E+01 0.58385492224E+01 0.59084640579E+01 0.59637420759E+01
 0.61246026183E+01 0.62657606432E+01 0.62290725115E+01 0.61559961770E+01 0.63286791881E+01
 0.69078008365E+01 0.82176624804E+01 0.10942444123E+02 0.16126733334E+02 0.34753979851E+02
 0.81840435538E+02 0.16281494141E+03 0.27039172889E+03 0.38407161150E+03 0.47293591223E+03
 0.47293591223E+03 0.39426608683E+03 0.28672675594E+03 0.17956920887E+03 0.94085201639E+02
 0.40809196316E+02 0.17808087109E+02 0.11306573673E+02 0.80964555881E+01 0.64896096894E+01
 0.57387963008E+01 0.54105961851E+01 0.53837222076E+01 0.54439977682E+01 0.54054468983E+01
 0.53501679482E+01 0.54152683690E+01 0.55216778521E+01 0.55512371866E+01 0.56078488085E+01
 0.58501115237E+01 0.62064904867E+01 0.65038847786E+01 0.67555109947E+01 0.70588279974E+01
 0.73129656209E+01 0.73347645285E+01 0.71993349168E+01 0.71875404106E+01 0.75075285622E+01
 0.84504508323E+01 0.10639215354E+02 0.14647614483E+02 0.28313684974E+02 0.66697337076E+02
 0.13847376121E+03 0.24063758682E+03 0.35519045190E+03 0.45082692987E+03 0.49520087534E+03
 0.38407161150E+03 0.28672675594E+03 0.18558284980E+03 0.10098564527E+03 0.45135816619E+02
 0.19252673762E+02 0.11646759588E+02 0.80828656829E+01 0.62104578578E+01 0.53062558036E+01
 0.48675583077E+01 0.47626476620E+01 0.48130394327E+01 0.48293198006E+01 0.48592170107E+01
 0.50329163163E+01 0.52817509762E+01 0.54718018075E+01 0.56849770394E+01 0.60968154194E+01
 0.66676695670E+01 0.72157159553E+01 0.77168706250E+01 0.82497401327E+01 0.86946699497E+01
 0.88062464066E+01 0.86006211537E+01 0.83815740714E+01 0.84060623278E+01 0.89152392371E+01
 0.10463001873E+02 0.13519491888E+02 0.22628675598E+02 0.51418091018E+02 0.11079289765E+03
 0.20227757817E+03 0.31193988631E+03 0.40976447338E+03 0.46199746704E+03 0.45082692987E+03
 0.27039172889E+03 0.17956920887E+03 0.10098564527E+03 0.46737300128E+02 0.20118606425E+02
 0.11864503488E+02 0.80764909790E+01 0.60378243710E+01 0.50306333451E+01 0.44826572175E+01
 0.42835712029E+01 0.43213862909E+01 0.43915958203E+01 0.44795037535E+01 0.47198907024E+01
 0.50930728310E+01 0.54518176971E+01 0.58207272301E+01 0.63875969813E+01 0.71896678164E+01
 0.80612487474E+01 0.89047708634E+01 0.97429491421E+01 0.10453035287E+02 0.10741472007E+02
 0.10513198325E+02 0.10037813468E+02 0.96630049683E+01 0.96748650661E+01 0.10552214720E+02
 0.12796777706E+02 0.18331552312E+02 0.38050052264E+02 0.83804802065E+02 0.16092199747E+03
 0.26031746282E+03 0.35508749153E+03 0.41151859962E+03 0.40976447338E+03 0.35519045190E+03
 0.16281494141E+03 0.94085201639E+02 0.45135816619E+02 0.20118606425E+02 0.11963894202E+02
 0.80930829055E+01 0.59250148632E+01 0.48410640075E+01 0.42328969798E+01 0.39545900923E+01
 0.39432591932E+01 0.40381930770E+01 0.41911014140E+01 0.44955742330E+01 0.49533995807E+01
 0.54502622017E+01 0.59923985234E+01 0.67452582187E+01 0.77863437537E+01 0.90077833080E+01
 0.10297205336E+02 0.11594030590E+02 0.12691436114E+02 0.13223138883E+02 0.13013265900E+02
 0.12288832632E+02 0.11444158470E+02 0.10832997199E+02 0.10942576870E+02 0.12352156085E+02
 0.15612834469E+02 0.27797011689E+02 0.60400772837E+02 0.12135774461E+03 0.20645892062E+03
 0.29330748782E+03 0.34987154658E+03 0.35508749153E+03 0.31193988631E+03 0.24063758682E+03
 0.81840435538E+02 0.40809196316E+02 0.19252673762E+02 0.11864503488E+02 0.80930829055E+01
 0.59056229597E+01 0.47578962903E+01 0.40761991163E+01 0.37297094182E+01 0.36821394932E+01
 0.37838777081E+01 0.39693230169E+01 0.43237431279E+01 0.48655740753E+01 0.54870203336E+01
 0.61796836812E+01 0.71189257052E+01 0.84369871004E+01 0.10070926604E+02 0.11891210205E+02
 0.13773247125E+02 0.15423359123E+02 0.16348190883E+02 0.16224977780E+02 0.15223127460E+02
 0.13827105049E+02 0.12508523498E+02 0.11768979736E+02 0.12223196521E+02 0.14136938137E+02
 0.20839196622E+02 0.42132707699E+02 0.87021615100E+02 0.15546494451E+03 0.23052528226E+03
 0.28356976795E+03 0.29330748782E+03 0.26031746282E+03 0.20227757817E+03 0.13847376121E+03
 0.34753979851E+02 0.17808087109E+02 0.11646759588E+02 0.80764909790E+01 0.59250148632E+01
 0.47578962903E+01 0.40379678484E+01 0.36241644801E+01 0.35149484961E+01 0.36072983388E+01
 0.38226667548E+01 0.42104657412E+01 0.48035786285E+01 0.55322293021E+01 0.63821423394E+01
 0.75100894001E+01 0.90989944910E+01 0.11180251968E+02 0.13644649170E+02 0.16272691182E+02
 0.18630684362E+02 0.20087438273E+02 0.20172504446E+02 0.18945273254E+02 0.16926601764E+02
 0.14755559989E+02 0.13062689959E+02 0.12503334432E+02 0.13453093304E+02 0.16704207067E+02
 0.29151239060E+02 0.59622452367E+02 0.11099649610E+03 0.17187498775E+03 0.21844667630E+03
 0.23052528226E+03 0.20645892062E+03 0.16092199747E+03 0.11079289765E+03 0.66697337076E+02
 0.16126733334E+02 0.11306573673E+02 0.80828656829E+01 0.60378243710E+01 0.48410640075E+01
 0.40761991163E+01 0.36241644801E+01 0.34679431864E+01 0.35206477350E+01 0.37288880578E+01
 0.41398404966E+01 0.47768396672E+01 0.55812681126E+01 0.65573642055E+01 0.78755143067E+01
 0.97549064326E+01 0.12300150849E+02 0.15456693168E+02 0.18961652159E+02 0.22225940539E+02
 0.24437002952E+02 0.24870066046E+02 0.23433441754E+02 0.20764984897E+02 0.17665164280E+02
 0.14889698752E+02 0.13195675661E+02 0.13109287207E+02 0.14623166137E+02 0.20895216626E+02
 0.39508855319E+02 0.74994216068E+02 0.12097671049E+03 0.15923501989E+03 0.17187498775E+03
 0.15546494451E+03 0.12135774461E+03 0.83804802065E+02 0.51418091018E+02 0.28313684974E+02
 0.10942444123E+02 0.80964555881E+01 0.62104578578E+01 0.50306333451E+01 0.42328969798E+01
 0.37297094182E+01 0.35149484961E+01 0.35206477350E+01 0.37028090891E+01 0.41060272049E+01
 0.47611980316E+01 0.56253168574E+01 0.67060881024E+01 0.81823557409E+01 0.10329815432E+02
 0.13348259641E+02 0.17240488363E+02 0.21699566741E+02 0.26072118448E+02 0.29375970463E+02
 0.30434722041E+02 0.28847595954E+02 0.25351815597E+02 0.21183015313E+02 0.17256064378E+02
 0.14359904986E+02 0.13111126018E+02 0.13605494959E+02 0.16273100370E+02 0.26149515911E+02
 0.48199160328E+02 0.80014752812E+02 0.10912863415E+03 0.12097671049E+03 0.11099649610E+03
 0.87021615100E+02 0.60400772837E+02 0.38050052264E+02 0.22628675598E+02 0.14647614483E+02
 0.82176624804E+01 0.64896096894E+01 0.53062558036E+01 0.44826572175E+01 0.39545900923E+01
 0.36821394932E+01 0.36072983388E+01 0.37288880578E+01 0.41060272049E+01 0.47583743154E+01
 0.56473581270E+01 0.68006437487E+01 0.84121103615E+01 0.10792594532E+02 0.14231880296E+02
 0.18831228418E+02 0.24297417807E+02 0.30026965544E+02 0.34734788510E+02 0.36717399426E+02
 0.35170918624E+02 0.30812441531E+02 0.25305024504E+02 0.20092234072E+02 0.15931336350E+02
 0.13482684272E+02 0.12946492199E+02 0.14019030092E+02 0.18314979312E+02 0.30185247808E+02
 0.49888559048E+02 0.70059529020E+02 0.80014752812E+02 0.74994216068E+02 0.59622452367E+02
 0.42132707699E+02 0.27797011689E+02 0.18331552312E+02 0.13519491888E+02 0.10639215354E+02
 0.69078008365E+01 0.57387963008E+01 0.48675583077E+01 0.42835712029E+01 0.39432591932E+01
 0.37838777081E+01 0.38226667548E+01 0.41398404966E+01 0.47611980316E+01 0.56473581270E+01
 0.68320356169E+01 0.85285443659E+01 0.11090682503E+02 0.14885303095E+02 0.20103768826E+02
 0.26542155247E+02 0.33740324206E+02 0.40101546186E+02 0.43331847221E+02 0.42100065412E+02
 0.36989459650E+02 0.30029340260E+02 0.23315540186E+02 0.17866407270E+02 0.14177368893E+02
 0.12546606016E+02 0.12739849162E+02 0.14426139716E+02 0.19650844943E+02 0.30105627822E+02
 0.42464837948E+02 0.49888559048E+02 0.48199160328E+02 0.39508855319E+02 0.29151239060E+02
 0.20839196622E+02 0.15612834469E+02 0.12796777706E+02 0.10463001873E+02 0.84504508323E+01
 0.63286791881E+01 0.54105961851E+01 0.47626476620E+01 0.43213862909E+01 0.40381930770E+01
 0.39693230169E+01 0.42104657412E+01 0.47768396672E+01 0.56253168574E+01 0.68006437487E+01
 0.85285443659E+01 0.11189968475E+02 0.15224573881E+02 0.20927060022E+02 0.28224270299E+02
 0.36817927649E+02 0.44887874230E+02 0.49607691571E+02 0.49052026554E+02 0.43494831213E+02
 0.35170918624E+02 0.26809096783E+02 0.20034300756E+02 0.15163371327E+02 0.12445888468E+02
 0.11701401041E+02 0.12465173688E+02 0.14497914990E+02 0.19023828681E+02 0.25394720726E+02
 0.30105627822E+02 0.30185247808E+02 0.26149515911E+02 0.20895216626E+02 0.16704207067E+02
 0.14136938137E+02 0.12352156085E+02 0.10552214720E+02 0.89152392371E+01 0.75075285622E+01
 0.61559961770E+01 0.53837222076E+01 0.48130394327E+01 0.43915958203E+01 0.41911014140E+01
 0.43237431279E+01 0.48035786285E+01 0.55812681126E+01 0.67060881024E+01 0.84121103615E+01
 0.11090682503E+02 0.15224573881E+02 0.21206484642E+02 0.29118758493E+02 0.38860202965E+02
 0.48514300933E+02 0.54812903234E+02 0.55243269671E+02 0.49666541805E+02 0.40331307529E+02
 0.30434722041E+02 0.22270745894E+02 0.16308141341E+02 0.12601315174E+02 0.10976221647E+02
 0.10952105775E+02 0.12030294158E+02 0.13853792741E+02 0.16560627564E+02 0.19023828681E+02
 0.19650844943E+02 0.18314979312E+02 0.16273100370E+02 0.14623166137E+02 0.13453093304E+02
 0.12223196521E+02 0.10942576870E+02 0.96748650661E+01 0.84060623278E+01 0.71875404106E+01
 0.62290725115E+01 0.54439977682E+01 0.48293198006E+01 0.44795037535E+01 0.44955742330E+01
 0.48655740753E+01 0.55322293021E+01 0.65573642055E+01 0.81823557409E+01 0.10792594532E+02
 0.14885303095E+02 0.20927060022E+02 0.29118758493E+02 0.39569424083E+02 0.50461382151E+02
 0.58262308482E+02 0.59918654567E+02 0.54780883315E+02 0.44932361369E+02 0.33860982618E+02
 0.24437002952E+02 0.17513817710E+02 0.12930885519E+02 0.10527368962E+02 0.97903244326E+01
 0.10204666113E+02 0.11319779425E+02 0.12651118509E+02 0.13853792741E+02 0.14497914990E+02
 0.14426139716E+02 0.14019030092E+02 0.13605494959E+02 0.13109287207E+02 0.12503334432E+02
 0.11768979736E+02 0.10832997199E+02 0.96630049683E+01 0.83815740714E+01 0.71993349168E+01
 0.62657606432E+01 0.54054468983E+01 0.48592170107E+01 0.47198907024E+01 0.49533995807E+01
 0.54870203336E+01 0.63821423394E+01 0.78755143067E+01 0.10329815432E+02 0.14231880296E+02
 0.20103768826E+02 0.28224270299E+02 0.38860202965E+02 0.50461382151E+02 0.59462765584E+02
 0.62426040067E+02 0.58168837267E+02 0.48416404426E+02 0.36704230567E+02 0.26330312663E+02
 0.18630684362E+02 0.13360541565E+02 0.10323243136E+02 0.89802099905E+01 0.87951735644E+01
 0.93770812494E+01 0.10350182193E+02 0.11319779425E+02 0.12030294158E+02 0.12465173688E+02
 0.12739849162E+02 0.12946492199E+02 0.13111126018E+02 0.13195675661E+02 0.13062689959E+02
 0.12508523498E+02 0.11444158470E+02 0.10037813468E+02 0.86006211537E+01 0.73347645285E+01
 0.61246026183E+01 0.53501679482E+01 0.50329163163E+01 0.50930728310E+01 0.54502622017E+01
 0.61796836812E+01 0.75100894001E+01 0.97549064326E+01 0.13348259641E+02 0.18831228418E+02
 0.26542155247E+02 0.36817927649E+02 0.48514300933E+02 0.58262308482E+02 0.62426040067E+02
 0.59347337656E+02 0.50286590857E+02 0.38595143383E+02 0.27761409382E+02 0.19535248382E+02
 0.13773247125E+02 0.10271862086E+02 0.84844256272E+01 0.78242274125E+01 0.79267636894E+01
 0.85380111434E+01 0.93770812494E+01 0.10204666113E+02 0.10952105775E+02 0.11701401041E+02
 0.12546606016E+02 0.13482684272E+02 0.14359904986E+02 0.14889698752E+02 0.14755559989E+02
 0.13827105049E+02 0.12288832632E+02 0.10513198325E+02 0.88062464066E+01 0.73129656209E+01
 0.59637420759E+01 0.54152683690E+01 0.52817509762E+01 0.54518176971E+01 0.59923985234E+01
 0.71189257052E+01 0.90989944910E+01 0.12300150849E+02 0.17240488363E+02 0.24297417807E+02
 0.33740324206E+02 0.44887874230E+02 0.54812903234E+02 0.59918654567E+02 0.58168837267E+02
 0.50286590857E+02 0.39251233524E+02 0.28525990551E+02 0.20129223318E+02 0.14108024424E+02
 0.10297205336E+02 0.81971883607E+01 0.72054032401E+01 0.69539486050E+01 0.72540825263E+01
 0.79267636894E+01 0.87951735644E+01 0.97903244326E+01 0.10976221647E+02 0.12445888468E+02
 0.14177368893E+02 0.15931336350E+02 0.17256064378E+02 0.17665164280E+02 0.16926601764E+02
 0.15223127460E+02 0.13013265900E+02 0.10741472007E+02 0.86946699497E+01 0.70588279974E+01
 0.59084640579E+01 0.55216778521E+01 0.54718018075E+01 0.58207272301E+01 0.67452582187E+01
 0.84369871004E+01 0.11180251968E+02 0.15456693168E+02 0.21699566741E+02 0.30026965544E+02
 0.40101546186E+02 0.49607691571E+02 0.55243269671E+02 0.54780883315E+02 0.48416404426E+02
 0.38595143383E+02 0.28525990551E+02 0.20329087148E+02 0.14287211059E+02 0.10344334780E+02
 0.80612487474E+01 0.68442244819E+01 0.63396378342E+01 0.64135882432E+01 0.69539486050E+01
 0.78242274125E+01 0.89802099905E+01 0.10527368962E+02 0.12601315174E+02 0.15163371327E+02
 0.17866407270E+02 0.20092234072E+02 0.21183015313E+02 0.20764984897E+02 0.18945273254E+02
 0.16224977780E+02 0.13223138883E+02 0.10453035287E+02 0.82497401327E+01 0.67555109947E+01
 0.58385492224E+01 0.55512371866E+01 0.56849770394E+01 0.63875969813E+01 0.77863437537E+01
 0.10070926604E+02 0.13644649170E+02 0.18961652159E+02 0.26072118448E+02 0.34734788510E+02
 0.43331847221E+02 0.49052026554E+02 0.49666541805E+02 0.44932361369E+02 0.36704230567E+02
 0.27761409382E+02 0.20129223318E+02 0.14287211059E+02 0.10358761312E+02 0.80041537062E+01
 0.66676695670E+01 0.60022982885E+01 0.59089597931E+01 0.63396378342E+01 0.72054032401E+01
 0.84844256272E+01 0.10323243136E+02 0.12930885519E+02 0.16308141341E+02 0.20034300756E+02
 0.23315540186E+02 0.25305024504E+02 0.25351815597E+02 0.23433441754E+02 0.20172504446E+02
 0.16348190883E+02 0.12691436114E+02 0.97429491421E+01 0.77168706250E+01 0.65038847786E+01
 0.56707619350E+01 0.56078488085E+01 0.60968154194E+01 0.71896678164E+01 0.90077833080E+01
 0.11891210205E+02 0.16272691182E+02 0.22225940539E+02 0.29375970463E+02 0.36717399426E+02
 0.42100065412E+02 0.43494831213E+02 0.40331307529E+02 0.33860982618E+02 0.26330312663E+02
 0.19535248382E+02 0.14108024424E+02 0.10344334780E+02 0.80041537062E+01 0.66091467374E+01
 0.58501115237E+01 0.56530265265E+01 0.60022982885E+01 0.68442244819E+01 0.81971883607E+01
 0.10271862086E+02 0.13360541565E+02 0.17513817710E+02 0.22270745894E+02 0.26809096783E+02
 0.30029340260E+02 0.30812441531E+02 0.28847595954E+02 0.24870066046E+02 0.20087438273E+02
 0.15423359123E+02 0.11594030590E+02 0.89047708634E+01 0.72157159553E+01 0.62064904867E+01
 0.55692877197E+01 0.58501115237E+01 0.66676695670E+01 0.80612487474E+01 0.10297205336E+02
 0.13773247125E+02 0.18630684362E+02 0.24437002952E+02 0.30434722041E+02 0.35170918624E+02
 0.36989459650E+02 0.35170918624E+02 0.30434722041E+02 0.24437002952E+02 0.18630684362E+02
 0.13773247125E+02 0.10297205336E+02 0.80612487474E+01 0.66676695670E+01 0.58501115237E+01
 0.55692877197E+01 0.58501115237E+01 0.66676695670E+01 0.80612487474E+01 0.10297205336E+02
 0.13773247125E+02 0.18630684362E+02 0.24437002952E+02 0.30434722041E+02 0.35170918624E+02
 0.36989459650E+02 0.35170918624E+02 0.30434722041E+02 0.24437002952E+02 0.18630684362E+02
 0.13773247125E+02 0.10297205336E+02 0.80612487474E+01 0.66676695670E+01 0.58501115237E+01
 0.56707619350E+01 0.62064904867E+01 0.72157159553E+01 0.89047708634E+01 0.11594030590E+02
 0.15423359123E+02 0.20087438273E+02 0.24870066046E+02 0.28847595954E+02 0.30812441531E+02
 0.30029340260E+02 0.26809096783E+02 0.22270745894E+02 0.17513817710E+02 0.13360541565E+02
 0.10271862086E+02 0.81971883607E+01 0.68442244819E+01 0.60022982885E+01 0.56530265265E+01
 0.58501115237E+01 0.66091467374E+01 0.80041537062E+01 0.10344334780E+02 0.14108024424E+02
 0.19535248382E+02 0.26330312663E+02 0.33860982618E+02 0.40331307529E+02 0.43494831213E+02
 0.42100065412E+02 0.36717399426E+02 0.29375970463E+02 0.22225940539E+02 0.16272691182E+02
 0.11891210205E+02 0.90077833080E+01 0.71896678164E+01 0.60968154194E+01 0.56078488085E+01
 0.58385492224E+01 0.65038847786E+01 0.77168706250E+01 0.97429491421E+01 0.12691436114E+02
 0.16348190883E+02 0.20172504446E+02 0.23433441754E+02 0.25351815597E+02 0.25305024504E+02
 0.23315540186E+02 0.20034300756E+02 0.16308141341E+02 0.12930885519E+02 0.10323243136E+02
 0.84844256272E+01 0.72054032401E+01 0.63396378342E+01 0.59089597931E+01 0.60022982885E+01
 0.66676695670E+01 0.80041537062E+01 0.10358761312E+02 0.14287211059E+02 0.20129223318E+02
 0.27761409382E+02 0.36704230567E+02 0.44932361369E+02 0.49666541805E+02 0.49052026554E+02
 0.43331847221E+02 0.34734788510E+02 0.26072118448E+02 0.18961652159E+02 0.13644649170E+02
 0.10070926604E+02 0.77863437537E+01 0.63875969813E+01 0.56849770394E+01 0.55512371866E+01
 0.59084640579E+01 0.67555109947E+01 0.82497401327E+01 0.10453035287E+02 0.13223138883E+02
 0.16224977780E+02 0.18945273254E+02 0.20764984897E+02 0.21183015313E+02 0.20092234072E+02
 0.17866407270E+02 0.15163371327E+02 0.12601315174E+02 0.10527368962E+02 0.89802099905E+01
 0.78242274125E+01 0.69539486050E+01 0.64135882432E+01 0.63396378342E+01 0.68442244819E+01
 0.80612487474E+01 0.10344334780E+02 0.14287211059E+02 0.20329087148E+02 0.28525990551E+02
 0.38595143383E+02 0.48416404426E+02 0.54780883315E+02 0.55243269671E+02 0.49607691571E+02
 0.40101546186E+02 0.30026965544E+02 0.21699566741E+02 0.15456693168E+02 0.11180251968E+02
 0.84369871004E+01 0.67452582187E+01 0.58207272301E+01 0.54718018075E+01 0.55216778521E+01
 0.59637420759E+01 0.70588279974E+01 0.86946699497E+01 0.10741472007E+02 0.13013265900E+02
 0.15223127460E+02 0.16926601764E+02 0.17665164280E+02 0.17256064378E+02 0.15931336350E+02
 0.14177368893E+02 0.12445888468E+02 0.10976221647E+02 0.97903244326E+01 0.87951735644E+01
 0.79267636894E+01 0.72540825263E+01 0.69539486050E+01 0.72054032401E+01 0.81971883607E+01
 0.10297205336E+02 0.14108024424E+02 0.20129223318E+02 0.28525990551E+02 0.39251233524E+02
 0.50286590857E+02 0.58168837267E+02 0.59918654567E+02 0.54812903234E+02 0.44887874230E+02
 0.33740324206E+02 0.24297417807E+02 0.17240488363E+02 0.12300150849E+02 0.90989944910E+01
 0.71189257052E+01 0.59923985234E+01 0.54518176971E+01 0.52817509762E+01 0.54152683690E+01
 0.61246026183E+01 0.73129656209E+01 0.88062464066E+01 0.10513198325E+02 0.12288832632E+02
 0.13827105049E+02 0.14755559989E+02 0.14889698752E+02 0.14359904986E+02 0.13482684272E+02
 0.12546606016E+02 0.11701401041E+02 0.10952105775E+02 0.10204666113E+02 0.93770812494E+01
 0.85380111434E+01 0.79267636894E+01 0.78242274125E+01 0.84844256272E+01 0.10271862086E+02
 0.13773247125E+02 0.19535248382E+02 0.27761409382E+02 0.38595143383E+02 0.50286590857E+02
 0.59347337656E+02 0.62426040067E+02 0.58262308482E+02 0.48514300933E+02 0.36817927649E+02
 0.26542155247E+02 0.18831228418E+02 0.13348259641E+02 0.97549064326E+01 0.75100894001E+01
 0.61796836812E+01 0.54502622017E+01 0.50930728310E+01 0.50329163163E+01 0.53501679482E+01
 0.62657606432E+01 0.73347645285E+01 0.86006211537E+01 0.10037813468E+02 0.11444158470E+02
 0.12508523498E+02 0.13062689959E+02 0.13195675661E+02 0.13111126018E+02 0.12946492199E+02
 0.12739849162E+02 0.12465173688E+02 0.12030294158E+02 0.11319779425E+02 0.10350182193E+02
 0.93770812494E+01 0.87951735644E+01 0.89802099905E+01 0.10323243136E+02 0.13360541565E+02
 0.18630684362E+02 0.26330312663E+02 0.36704230567E+02 0.48416404426E+02 0.58168837267E+02
 0.62426040067E+02 0.59462765584E+02 0.50461382151E+02 0.38860202965E+02 0.28224270299E+02
 0.20103768826E+02 0.14231880296E+02 0.10329815432E+02 0.78755143067E+01 0.63821423394E+01
 0.54870203336E+01 0.49533995807E+01 0.47198907024E+01 0.48592170107E+01 0.54054468983E+01
 0.62290725115E+01 0.71993349168E+01 0.83815740714E+01 0.96630049683E+01 0.10832997199E+02
 0.11768979736E+02 0.12503334432E+02 0.13109287207E+02 0.13605494959E+02 0.14019030092E+02
 0.14426139716E+02 0.14497914990E+02 0.13853792741E+02 0.12651118509E+02 0.11319779425E+02
 0.10204666113E+02 0.97903244326E+01 0.10527368962E+02 0.12930885519E+02 0.17513817710E+02
 0.24437002952E+02 0.33860982618E+02 0.44932361369E+02 0.54780883315E+02 0.59918654567E+02
 0.58262308482E+02 0.50461382151E+02 0.39569424083E+02 0.29118758493E+02 0.20927060022E+02
 0.14885303095E+02 0.10792594532E+02 0.81823557409E+01 0.65573642055E+01 0.55322293021E+01
 0.48655740753E+01 0.44955742330E+01 0.44795037535E+01 0.48293198006E+01 0.54439977682E+01
 0.61559961770E+01 0.71875404106E+01 0.84060623278E+01 0.96748650661E+01 0.10942576870E+02
 0.12223196521E+02 0.13453093304E+02 0.14623166137E+02 0.16273100370E+02 0.18314979312E+02
 0.19650844943E+02 0.19023828681E+02 0.16560627564E+02 0.13853792741E+02 0.12030294158E+02
 0.10952105775E+02 0.10976221647E+02 0.12601315174E+02 0.16308141341E+02 0.22270745894E+02
 0.30434722041E+02 0.40331307529E+02 0.49666541805E+02 0.55243269671E+02 0.54812903234E+02
 0.48514300933E+02 0.38860202965E+02 0.29118758493E+02 0.21206484642E+02 0.15224573881E+02
 0.11090682503E+02 0.84121103615E+01 0.67060881024E+01 0.55812681126E+01 0.48035786285E+01
 0.43237431279E+01 0.41911014140E+01 0.43915958203E+01 0.48130394327E+01 0.53837222076E+01
 0.63286791881E+01 0.75075285622E+01 0.89152392371E+01 0.10552214720E+02 0.12352156085E+02
 0.14136938137E+02 0.16704207067E+02 0.20895216626E+02 0.26149515911E+02 0.30185247808E+02
 0.30105627822E+02 0.25394720726E+02 0.19023828681E+02 0.14497914990E+02 0.12465173688E+02
 0.11701401041E+02 0.12445888468E+02 0.15163371327E+02 0.20034300756E+02 0.26809096783E+02
 0.35170918624E+02 0.43494831213E+02 0.49052026554E+02 0.49607691571E+02 0.44887874230E+02
 0.36817927649E+02 0.28224270299E+02 0.20927060022E+02 0.15224573881E+02 0.11189968475E+02
 0.85285443659E+01 0.68006437487E+01 0.56253168574E+01 0.47768396672E+01 0.42104657412E+01
 0.39693230169E+01 0.40381930770E+01 0.43213862909E+01 0.47626476620E+01 0.54105961851E+01
 0.69078008365E+01 0.84504508323E+01 0.10463001873E+02 0.12796777706E+02 0.15612834469E+02
 0.20839196622E+02 0.29151239060E+02 0.39508855319E+02 0.48199160328E+02 0.49888559048E+02
 0.42464837948E+02 0.30105627822E+02 0.19650844943E+02 0.14426139716E+02 0.12739849162E+02
 0.12546606016E+02 0.14177368893E+02 0.17866407270E+02 0.23315540186E+02 0.30029340260E+02
 0.36989459650E+02 0.42100065412E+02 0.43331847221E+02 0.40101546186E+02 0.33740324206E+02
 0.26542155247E+02 0.20103768826E+02 0.14885303095E+02 0.11090682503E+02 0.85285443659E+01
 0.68320356169E+01 0.56473581270E+01 0.47611980316E+01 0.41398404966E+01 0.38226667548E+01
 0.37838777081E+01 0.39432591932E+01 0.42835712029E+01 0.48675583077E+01 0.57387963008E+01
 0.82176624804E+01 0.10639215354E+02 0.13519491888E+02 0.18331552312E+02 0.27797011689E+02
 0.42132707699E+02 0.59622452367E+02 0.74994216068E+02 0.80014752812E+02 0.70059529020E+02
 0.49888559048E+02 0.30185247808E+02 0.18314979312E+02 0.14019030092E+02 0.12946492199E+02
 0.13482684272E+02 0.15931336350E+02 0.20092234072E+02 0.25305024504E+02 0.30812441531E+02
 0.35170918624E+02 0.36717399426E+02 0.34734788510E+02 0.30026965544E+02 0.24297417807E+02
 0.18831228418E+02 0.14231880296E+02 0.10792594532E+02 0.84121103615E+01 0.68006437487E+01
 0.56473581270E+01 0.47583743154E+01 0.41060272049E+01 0.37288880578E+01 0.36072983388E+01
 0.36821394932E+01 0.39545900923E+01 0.44826572175E+01 0.53062558036E+01 0.64896096894E+01
 0.10942444123E+02 0.14647614483E+02 0.22628675598E+02 0.38050052264E+02 0.60400772837E+02
 0.87021615100E+02 0.11099649610E+03 0.12097671049E+03 0.10912863415E+03 0.80014752812E+02
 0.48199160328E+02 0.26149515911E+02 0.16273100370E+02 0.13605494959E+02 0.13111126018E+02
 0.14359904986E+02 0.17256064378E+02 0.21183015313E+02 0.25351815597E+02 0.28847595954E+02
 0.30434722041E+02 0.29375970463E+02 0.26072118448E+02 0.21699566741E+02 0.17240488363E+02
 0.13348259641E+02 0.10329815432E+02 0.81823557409E+01 0.67060881024E+01 0.56253168574E+01
 0.47611980316E+01 0.41060272049E+01 0.37028090891E+01 0.35206477350E+01 0.35149484961E+01
 0.37297094182E+01 0.42328969798E+01 0.50306333451E+01 0.62104578578E+01 0.80964555881E+01
 0.16126733334E+02 0.28313684974E+02 0.51418091018E+02 0.83804802065E+02 0.12135774461E+03
 0.15546494451E+03 0.17187498775E+03 0.15923501989E+03 0.12097671049E+03 0.74994216068E+02
 0.39508855319E+02 0.20895216626E+02 0.14623166137E+02 0.13109287207E+02 0.13195675661E+02
 0.14889698752E+02 0.17665164280E+02 0.20764984897E+02 0.23433441754E+02 0.24870066046E+02
 0.24437002952E+02 0.22225940539E+02 0.18961652159E+02 0.15456693168E+02 0.12300150849E+02
 0.97549064326E+01 0.78755143067E+01 0.65573642055E+01 0.55812681126E+01 0.47768396672E+01
 0.41398404966E+01 0.37288880578E+01 0.35206477350E+01 0.34679431864E+01 0.36241644801E+01
 0.40761991163E+01 0.48410640075E+01 0.60378243710E+01 0.80828656829E+01 0.11306573673E+02
 0.34753979851E+02 0.66697337076E+02 0.11079289765E+03 0.16092199747E+03 0.20645892062E+03
 0.23052528226E+03 0.21844667630E+03 0.17187498775E+03 0.11099649610E+03 0.59622452367E+02
 0.29151239060E+02 0.16704207067E+02 0.13453093304E+02 0.12503334432E+02 0.13062689959E+02
 0.14755559989E+02 0.16926601764E+02 0.18945273254E+02 0.20172504446E+02 0.20087438273E+02
 0.18630684362E+02 0.16272691182E+02 0.13644649170E+02 0.11180251968E+02 0.90989944910E+01
 0.75100894001E+01 0.63821423394E+01 0.55322293021E+01 0.48035786285E+01 0.42104657412E+01
 0.38226667548E+01 0.36072983388E+01 0.35149484961E+01 0.36241644801E+01 0.40379678484E+01
 0.47578962903E+01 0.59250148632E+01 0.80764909790E+01 0.11646759588E+02 0.17808087109E+02
 0.81840435538E+02 0.13847376121E+03 0.20227757817E+03 0.26031746282E+03 0.29330748782E+03
 0.28356976795E+03 0.23052528226E+03 0.15546494451E+03 0.87021615100E+02 0.42132707699E+02
 0.20839196622E+02 0.14136938137E+02 0.12223196521E+02 0.11768979736E+02 0.12508523498E+02
 0.13827105049E+02 0.15223127460E+02 0.16224977780E+02 0.16348190883E+02 0.15423359123E+02
 0.13773247125E+02 0.11891210205E+02 0.10070926604E+02 0.84369871004E+01 0.71189257052E+01
 0.61796836812E+01 0.54870203336E+01 0.48655740753E+01 0.43237431279E+01 0.39693230169E+01
 0.37838777081E+01 0.36821394932E+01 0.37297094182E+01 0.40761991163E+01 0.47578962903E+01
 0.59056229597E+01 0.80930829055E+01 0.11864503488E+02 0.19252673762E+02 0.40809196316E+02
 0.16281494141E+03 0.24063758682E+03 0.31193988631E+03 0.35508749153E+03 0.34987154658E+03
 0.29330748782E+03 0.20645892062E+03 0.12135774461E+03 0.60400772837E+02 0.27797011689E+02
 0.15612834469E+02 0.12352156085E+02 0.10942576870E+02 0.10832997199E+02 0.11444158470E+02
 0.12288832632E+02 0.13013265900E+02 0.13223138883E+02 0.12691436114E+02 0.11594030590E+02
 0.10297205336E+02 0.90077833080E+01 0.77863437537E+01 0.67452582187E+01 0.59923985234E+01
 0.54502622017E+01 0.49533995807E+01 0.44955742330E+01 0.41911014140E+01 0.40381930770E+01
 0.39432591932E+01 0.39545900923E+01 0.42328969798E+01 0.48410640075E+01 0.59250148632E+01
 0.80930829055E+01 0.11963894202E+02 0.20118606425E+02 0.45135816619E+02 0.94085201639E+02
 0.27039172889E+03 0.35519045190E+03 0.40976447338E+03 0.41151859962E+03 0.35508749153E+03
 0.26031746282E+03 0.16092199747E+03 0.83804802065E+02 0.38050052264E+02 0.18331552312E+02
 0.12796777706E+02 0.10552214720E+02 0.96748650661E+01 0.96630049683E+01 0.10037813468E+02
 0.10513198325E+02 0.10741472007E+02 0.10453035287E+02 0.97429491421E+01 0.89047708634E+01
 0.80612487474E+01 0.71896678164E+01 0.63875969813E+01 0.58207272301E+01 0.54518176971E+01
 0.50930728310E+01 0.47198907024E+01 0.44795037535E+01 0.43915958203E+01 0.43213862909E+01
 0.42835712029E+01 0.44826572175E+01 0.50306333451E+01 0.60378243710E+01 0.80764909790E+01
 0.11864503488E+02 0.20118606425E+02 0.46737300128E+02 0.10098564527E+03 0.17956920887E+03
 0.38407161150E+03 0.45082692987E+03 0.46199746704E+03 0.40976447338E+03 0.31193988631E+03
 0.20227757817E+03 0.11079289765E+03 0.51418091018E+02 0.22628675598E+02 0.13519491888E+02
 0.10463001873E+02 0.89152392371E+01 0.84060623278E+01 0.83815740714E+01 0.86006211537E+01
 0.88062464066E+01 0.86946699497E+01 0.82497401327E+01 0.77168706250E+01 0.72157159553E+01
 0.66676695670E+01 0.60968154194E+01 0.56849770394E+01 0.54718018075E+01 0.52817509762E+01
 0.50329163163E+01 0.48592170107E+01 0.48293198006E+01 0.48130394327E+01 0.47626476620E+01
 0.48675583077E+01 0.53062558036E+01 0.62104578578E+01 0.80828656829E+01 0.11646759588E+02
 0.19252673762E+02 0.45135816619E+02 0.10098564527E+03 0.18558284980E+03 0.28672675594E+03
 0.47293591223E+03 0.49520087534E+03 0.45082692987E+03 0.35519045190E+03 0.24063758682E+03
 0.13847376121E+03 0.66697337076E+02 0.28313684974E+02 0.14647614483E+02 0.10639215354E+02
 0.84504508323E+01 0.75075285622E+01 0.71875404106E+01 0.71993349168E+01 0.73347645285E+01
 0.73129656209E+01 0.70588279974E+01 0.67555109947E+01 0.65038847786E+01 0.62064904867E+01
 0.58501115237E+01 0.56078488085E+01 0.55512371866E+01 0.55216778521E+01 0.54152683690E+01
 0.53501679482E+01 0.54054468983E+01 0.54439977682E+01 0.53837222076E+01 0.54105961851E+01
 0.57387963008E+01 0.64896096894E+01 0.80964555881E+01 0.11306573673E+02 0.17808087109E+02
 0.40809196316E+02 0.94085201639E+02 0.17956920887E+03 0.28672675594E+03 0.39426608683E+03
 0.47293591223E+03 0.39426608683E+03 0.28672675594E+03 0.17956920887E+03 0.94085201639E+02
 0.40809196316E+02 0.17808087109E+02 0.11306573673E+02 0.80964555881E+01 0.64896096894E+01
 0.57387963008E+01 0.54105961851E+01 0.53837222076E+01 0.54439977682E+01 0.54054468983E+01
 0.53501679482E+01 0.54152683690E+01 0.55216778521E+01 0.55512371866E+01 0.56078488085E+01
 0.58501115237E+01 0.62064904867E+01 0.65038847786E+01 0.67555109947E+01 0.70588279974E+01