Au                                      
   1.00000000000000     
     6.000000    0.000000    0.000000
     0.000000    6.000000    0.000000
     0.000000    0.000000    6.000000
   Au
     2
Direct
  0.500000  0.750000  0.416670
  0.500000  0.333330  0.416670
 
   12   12   12
 -.17205959927E-01 -.14467956684E-02 0.40690069484E-01 0.96079921154E-01 0.14896671752E+00
 0.18609754210E+00 0.19935372166E+00 0.18609754210E+00 0.14896671752E+00 0.96079921154E-01
 0.40690069483E-01 -.14467956688E-02 -.17200922327E-01 -.14457529288E-02 0.40685629087E-01
 0.96080840720E-01 0.14898783499E+00 0.18614285238E+00 0.19940987509E+00 0.18614285238E+00
 0.14898783499E+00 0.96080840720E-01 0.40685629086E-01 -.14457529295E-02 0.19407674254E+00
 0.42434676811E-01 -.14496050692E+00 0.13590309268E+00 0.10366715368E+01 0.20890865750E+01
 0.25573499259E+01 0.20890865750E+01 0.10366715368E+01 0.13590309268E+00 -.14496050692E+00
 0.42434676811E-01 0.41988543887E+00 0.90137716568E-01 -.34020792749E+00 0.18524414094E+00
 0.19962477405E+01 0.41370043008E+01 0.50928076002E+01 0.41370043008E+01 0.19962477405E+01
 0.18524414094E+00 -.34020792749E+00 0.90137716568E-01 0.45959259872E+00 0.10058284800E+00
 -.36644827687E+00 0.21124938795E+00 0.21926915473E+01 0.45331491898E+01 0.55778843482E+01
 0.45331491898E+01 0.21926915473E+01 0.21124938795E+00 -.36644827687E+00 0.10058284800E+00
 0.30256237717E+00 0.70970793071E-01 -.21665408430E+00 0.20694821706E+00 0.15733760927E+01
 0.31714014632E+01 0.38826347669E+01 0.31714014632E+01 0.15733760927E+01 0.20694821706E+00
 -.21665408430E+00 0.70970793070E-01 0.13100060941E+00 0.37536270296E-01 -.57258586041E-01
 0.19312829434E+00 0.88216680282E+00 0.16646757487E+01 0.20098636027E+01 0.16646757487E+01
 0.88216680282E+00 0.19312829433E+00 -.57258586042E-01 0.37536270295E-01 0.13100481649E+00
 0.37537094525E-01 -.57262477603E-01 0.19312867008E+00 0.88218381190E+00 0.16647127740E+01
 0.20099096111E+01 0.16647127740E+01 0.88218381190E+00 0.19312867008E+00 -.57262477604E-01
 0.37537094524E-01 0.30257048729E+00 0.70972361566E-01 -.21666166660E+00 0.20694876947E+00
 0.15734086070E+01 0.31714724809E+01 0.38827230701E+01 0.31714724809E+01 0.15734086070E+01
 0.20694876947E+00 -.21666166660E+00 0.70972361565E-01 0.45959567124E+00 0.10058337372E+00
 -.36645141884E+00 0.21124902066E+00 0.21927029438E+01 0.45331748970E+01 0.55779164977E+01
 0.45331748970E+01 0.21927029438E+01 0.21124902066E+00 -.36645141884E+00 0.10058337372E+00
 0.41987926671E+00 0.90136375309E-01 -.34020273750E+00 0.18524247832E+00 0.19962210104E+01
 0.41369476724E+01 0.50927375879E+01 0.41369476724E+01 0.19962210104E+01 0.18524247832E+00
 -.34020273750E+00 0.90136375310E-01 0.19406636331E+00 0.42432511357E-01 -.14495142530E+00
 0.13590105445E+00 0.10366277979E+01 0.20889929216E+01 0.25572339056E+01 0.20889929216E+01
 0.10366277979E+01 0.13590105445E+00 -.14495142530E+00 0.42432511357E-01 0.33012399335E-01
 0.40689160678E-01 0.13272087542E+00 0.42656868315E+00 0.91456344608E+00 0.13948894070E+01
 0.15967134585E+01 0.13948894070E+01 0.91456344608E+00 0.42656868315E+00 0.13272087542E+00
 0.40689160678E-01 0.32985381900E-01 0.40684721885E-01 0.13274768763E+00 0.42656617495E+00
 0.91444846754E+00 0.13946393795E+01 0.15964028597E+01 0.13946393795E+01 0.91444846753E+00
 0.42656617495E+00 0.13274768763E+00 0.40684721884E-01 -.11010680064E+01 -.14489406349E+00
 0.12607972730E+01 0.32610880212E+00 -.39051230264E+01 -.90925183898E+01 -.11432887840E+02
 -.90925183898E+01 -.39051230264E+01 0.32610880212E+00 0.12607972730E+01 -.14489406349E+00
 -.23181352019E+01 -.34006903467E+00 0.24855099673E+01 0.24430314672E+00 -.90417426319E+01
 -.20305839873E+02 -.25372611439E+02 -.20305839873E+02 -.90417426319E+01 0.24430314672E+00
 0.24855099673E+01 -.34006903467E+00 -.25449785346E+01 -.36629545126E+00 0.27496404664E+01
 0.29524897561E+00 -.99081371222E+01 -.22290189070E+02 -.27860500050E+02 -.22290189070E+02
 -.99081371222E+01 0.29524897561E+00 0.27496404664E+01 -.36629545126E+00 -.17208349399E+01
 -.21654957475E+00 0.19824294081E+01 0.46528771188E+00 -.62722453203E+01 -.14514047149E+02
 -.18230151539E+02 -.14514047149E+02 -.62722453203E+01 0.46528771188E+00 0.19824294081E+01
 -.21654957475E+00 -.81367558044E+00 -.57207491432E-01 0.11185535024E+01 0.61667440356E+00
 -.23192984274E+01 -.60117246066E+01 -.76893499840E+01 -.60117246066E+01 -.23192984274E+01
 0.61667440356E+00 0.11185535024E+01 -.57207491433E-01 -.81369785353E+00 -.57211381681E-01
 0.11185747905E+01 0.61667083025E+00 -.23193952847E+01 -.60119331309E+01 -.76896085480E+01
 -.60119331309E+01 -.23193952847E+01 0.61667083025E+00 0.11185747905E+01 -.57211381683E-01
 -.17208777495E+01 -.21655715454E+00 0.19824699624E+01 0.46528017520E+00 -.62724324025E+01
 -.14514449007E+02 -.18230649622E+02 -.14514449007E+02 -.62724324025E+01 0.46528017520E+00
 0.19824699624E+01 -.21655715454E+00 -.25449943269E+01 -.36629859231E+00 0.27496542083E+01
 0.29524394681E+00 -.99082092265E+01 -.22290340901E+02 -.27860687534E+02 -.22290340901E+02
 -.99082092265E+01 0.29524394681E+00 0.27496542083E+01 -.36629859231E+00 -.23181017036E+01
 -.34006384667E+00 0.24854756089E+01 0.24430419941E+00 -.90416029003E+01 -.20305533152E+02
 -.25372229760E+02 -.20305533152E+02 -.90416029003E+01 0.24430419941E+00 0.24854756089E+01
 -.34006384667E+00 -.11010122350E+01 -.14488498518E+00 0.12607416265E+01 0.32611342843E+00
 -.39048864369E+01 -.90920031440E+01 -.11432247597E+02 -.90920031440E+01 -.39048864369E+01
 0.32611342843E+00 0.12607416265E+01 -.14488498518E+00 -.81485905685E-01 0.96090331755E-01
 0.42656308236E+00 0.51204255678E+00 0.17496958224E+00 -.33966177783E+00 -.58463720469E+00
 -.33966177783E+00 0.17496958224E+00 0.51204255678E+00 0.42656308236E+00 0.96090331755E-01
 -.81477703064E-01 0.96091250344E-01 0.42656057755E+00 0.51207436064E+00 0.17508071097E+00
 -.33946404002E+00 -.58440173465E+00 -.33946404002E+00 0.17508071096E+00 0.51207436064E+00
 0.42656057755E+00 0.96091250343E-01 0.26489074824E+00 0.13587246777E+00 0.32624591343E+00
 0.18707294602E+01 0.48983652001E+01 0.80550444792E+01 0.94091798971E+01 0.80550444792E+01
 0.48983652001E+01 0.18707294602E+01 0.32624591342E+00 0.13587246777E+00 0.64775115466E+00
 0.18516930604E+00 0.24459507161E+00 0.34565658999E+01 0.10283697276E+02 0.17573442675E+02
 0.20726020374E+02 0.17573442675E+02 0.10283697276E+02 0.34565658999E+01 0.24459507161E+00
 0.18516930604E+00 0.74746049759E+00 0.21116587589E+00 0.29557397725E+00 0.40772734003E+01
 0.12092596548E+02 0.20644249109E+02 0.24341575793E+02 0.20644249109E+02 0.12092596548E+02
 0.40772734003E+01 0.29557397725E+00 0.21116587589E+00 0.53730615422E+00 0.20689388509E+00
 0.46551519267E+00 0.35665383313E+01 0.98404132143E+01 0.16444736810E+02 0.19287175317E+02
 0.16444736810E+02 0.98404132143E+01 0.35665383313E+01 0.46551519267E+00 0.20689388509E+00
 0.29065894190E+00 0.19310631794E+00 0.61679225837E+00 0.28286177919E+01 0.69261690187E+01
 0.11121308437E+02 0.12909483623E+02 0.11121308437E+02 0.69261690187E+01 0.28286177919E+01
 0.61679225837E+00 0.19310631794E+00 0.29066505920E+00 0.19310669289E+00 0.61678868777E+00
 0.28286366152E+01 0.69262423180E+01 0.11121441954E+02 0.12909643480E+02 0.11121441954E+02
 0.69262423180E+01 0.28286366152E+01 0.61678868777E+00 0.19310669289E+00 0.53731762548E+00
 0.20689443597E+00 0.46550766113E+00 0.35665712264E+01 0.98405459655E+01 0.16444980338E+02
 0.19287467354E+02 0.16444980338E+02 0.98405459655E+01 0.35665712264E+01 0.46550766113E+00
 0.20689443597E+00 0.74746376615E+00 0.21116550805E+00 0.29556895020E+00 0.40772744909E+01
 0.12092618169E+02 0.20644294897E+02 0.24341632358E+02 0.20644294897E+02 0.12092618169E+02
 0.40772744909E+01 0.29556895020E+00 0.21116550805E+00 0.64774010330E+00 0.18516764465E+00
 0.24459611997E+00 0.34565163631E+01 0.10283534469E+02 0.17573157208E+02 0.20725681612E+02
 0.17573157208E+02 0.10283534469E+02 0.34565163631E+01 0.24459611997E+00 0.18516764465E+00
 0.26487357965E+00 0.13587043155E+00 0.32625053270E+00 0.18706611009E+01 0.48981290953E+01
 0.80546254962E+01 0.94086812796E+01 0.80546254962E+01 0.48981290953E+01 0.18706611009E+01
 0.32625053270E+00 0.13587043155E+00 -.40741308396E+00 0.14900249694E+00 0.91455280130E+00
 0.17491539737E+00 -.26262938950E+01 -.59838857995E+01 -.74890405607E+01 -.59838857995E+01
 -.26262938950E+01 0.17491539737E+00 0.91455280130E+00 0.14900249694E+00 -.40727842729E+00
 0.14902360588E+00 0.91443782792E+00 0.17502654181E+00 -.26254808845E+01 -.59822573750E+01
 -.74870499357E+01 -.59822573750E+01 -.26254808845E+01 0.17502654181E+00 0.91443782792E+00
 0.14902360588E+00 0.52511527856E+01 0.10363490515E+01 -.39049164530E+01 0.48989724695E+01
 0.31662863382E+02 0.62641599582E+02 0.76386795236E+02 0.62641599582E+02 0.31662863382E+02
 0.48989724695E+01 -.39049164530E+01 0.10363490515E+01 0.11357446945E+02 0.19955394973E+01
 -.90412981401E+01 0.10285023556E+02 0.69336464569E+02 0.13774985817E+03 0.16790493947E+03
 0.13774985817E+03 0.69336464569E+02 0.10285023556E+02 -.90412981401E+01 0.19955394973E+01
 0.12581253640E+02 0.21919081540E+01 -.99076360542E+01 0.12094080143E+02 0.78586458466E+02
 0.15525472184E+03 0.18692727949E+03 0.15525472184E+03 0.78586458466E+02 0.12094080143E+02
 -.99076360542E+01 0.21919081540E+01 0.85947414414E+01 0.15728482874E+01 -.62718841745E+01
 0.98414502863E+01 0.56934806019E+02 0.11105011335E+03 0.13495661992E+03 0.11105011335E+03
 0.56934806019E+02 0.98414502863E+01 -.62718841745E+01 0.15728482874E+01 0.41603569552E+01
 0.88192208790E+00 -.23190979097E+01 0.69267019949E+01 0.31897819571E+02 0.60147435442E+02
 0.72594318640E+02 0.60147435442E+02 0.31897819571E+02 0.69267019949E+01 -.23190979097E+01
 0.88192208790E+00 0.41604660164E+01 0.88193909002E+00 -.23191947632E+01 0.69267753066E+01
 0.31898439128E+02 0.60148693303E+02 0.72595860521E+02 0.60148693303E+02 0.31898439128E+02
 0.69267753066E+01 -.23191947632E+01 0.88193909002E+00 0.85949501952E+01 0.15728807883E+01
 -.62720712493E+01 0.98415830612E+01 0.56935974322E+02 0.11105249343E+03 0.13495951785E+03
 0.11105249343E+03 0.56935974322E+02 0.98415830612E+01 -.62720712493E+01 0.15728807883E+01
 0.12581327737E+02 0.21919195457E+01 -.99077081561E+01 0.12094101772E+02 0.78586813756E+02
 0.15525546980E+03 0.18692815954E+03 0.15525546980E+03 0.78586813756E+02 0.12094101772E+02
 -.99077081561E+01 0.21919195457E+01 0.11357277325E+02 0.19955127779E+01 -.90411584152E+01
 0.10284860728E+02 0.69335387292E+02 0.13774772354E+03 0.16790240036E+03 0.13774772354E+03
 0.69335387292E+02 0.10284860728E+02 -.90411584152E+01 0.19955127779E+01 0.52508741037E+01
 0.10363053302E+01 -.39046798741E+01 0.48987363320E+01 0.31661166551E+02 0.62638207096E+02
 0.76382649733E+02 0.62638207096E+02 0.31661166551E+02 0.48987363320E+01 -.39046798741E+01
 0.10363053302E+01 -.78005421754E+00 0.18616095605E+00 0.13948821746E+01 -.33979815103E+00
 -.59840493491E+01 -.12594468547E+02 -.15537822874E+02 -.12594468547E+02 -.59840493491E+01
 -.33979815103E+00 0.13948821746E+01 0.18616095605E+00 -.77976914733E+00 0.18620624957E+00
 0.13946321501E+01 -.33960037676E+00 -.59824208819E+01 -.12591169609E+02 -.15533780819E+02
 -.12591169609E+02 -.59824208819E+01 -.33960037676E+00 0.13946321501E+01 0.18620624957E+00
 0.11196640340E+02 0.20884457950E+01 -.90924018616E+01 0.80564430883E+01 0.62643232363E+02
 0.12633827249E+03 0.15448958578E+03 0.12633827249E+03 0.62643232363E+02 0.80564430883E+01
 -.90924018616E+01 0.20884457950E+01 0.24107102412E+02 0.41356051709E+01 -.20305582489E+02
 0.17576512095E+02 0.13775344309E+03 0.26765087799E+03 0.31052134486E+03 0.26765087799E+03
 0.13775344309E+03 0.17576512095E+02 -.20305582489E+02 0.41356051709E+01 0.26659453267E+02
 0.45316020294E+01 -.22289884969E+02 0.20647689779E+02 0.15525866983E+03 0.28303617133E+03
 0.31856349712E+03 0.28303617133E+03 0.15525866983E+03 0.20647689779E+02 -.22289884969E+02
 0.45316020294E+01 0.18169976033E+02 0.31703562448E+01 -.14513802986E+02 0.16447149716E+02
 0.11105290968E+03 0.21897572481E+03 0.26261805319E+03 0.21897572481E+03 0.11105290968E+03
 0.16447149716E+02 -.14513802986E+02 0.31703562448E+01 0.87464278968E+01 0.16641866461E+01
 -.60115574798E+01 0.11122557710E+02 0.60148861447E+02 0.11625750057E+03 0.14103120419E+03
 0.11625750057E+03 0.60148861447E+02 0.11122557710E+02 -.60115574798E+01 0.16641866461E+01
 0.87466595855E+01 0.16642236577E+01 -.60117660021E+01 0.11122691257E+02 0.60150119341E+02
 0.11626007749E+03 0.14103434938E+03 0.11626007749E+03 0.60150119341E+02 0.11122691257E+02
 -.60117660021E+01 0.16642236577E+01 0.18170419871E+02 0.31704272363E+01 -.14514204840E+02
 0.16447393298E+02 0.11105528983E+03 0.21898015482E+03 0.26262294471E+03 0.21898015482E+03
 0.11105528983E+03 0.16447393298E+02 -.14514204840E+02 0.31704272363E+01 0.26659612035E+02
 0.45316277271E+01 -.22290036799E+02 0.20647735585E+02 0.15525941781E+03 0.28303711417E+03
 0.31856402767E+03 0.28303711417E+03 0.15525941781E+03 0.20647735585E+02 -.22290036799E+02
 0.45316277271E+01 0.24106744422E+02 0.41355485636E+01 -.20305275772E+02 0.17576226581E+02
 0.13775130841E+03 0.26764772205E+03 0.31051854723E+03 0.26764772205E+03 0.13775130841E+03
 0.17576226581E+02 -.20305275772E+02 0.41355485636E+01 0.11196050661E+02 0.20883521763E+01
 -.90918866220E+01 0.80560240295E+01 0.62639839788E+02 0.12633141034E+03 0.15448128549E+03
 0.12633141034E+03 0.62639839788E+02 0.80560240295E+01 -.90918866220E+01 0.20883521763E+01
 -.94478670506E+00 0.19942979066E+00 0.15967199801E+01 -.58482721385E+00 -.74893761874E+01
 -.15538088952E+02 -.19116873506E+02 -.15538088952E+02 -.74893761874E+01 -.58482721385E+00
 0.15967199801E+01 0.19942979066E+00 -.94443435225E+00 0.19948592436E+00 0.15964093791E+01
 -.58459169569E+00 -.74873854768E+01 -.15534046830E+02 -.19111918530E+02 -.15534046830E+02
 -.74873854768E+01 -.58459169569E+00 0.15964093791E+01 0.19948592436E+00 0.13858043740E+02
 0.25565971471E+01 -.11432968406E+02 0.94110164562E+01 0.76390056831E+02 0.15449211996E+03
 0.18672722892E+03 0.15449211996E+03 0.76390056831E+02 0.94110164562E+01 -.11432968406E+02
 0.25565971471E+01 0.29811649994E+02 0.50911620362E+01 -.25372775971E+02 0.20730066709E+02
 0.16791199031E+03 0.31052477984E+03 0.34334614604E+03 0.31052477984E+03 0.16791199031E+03
 0.20730066709E+02 -.25372775971E+02 0.50911620362E+01 0.32957170295E+02 0.55760640173E+01
 -.27860656067E+02 0.24346122871E+02 0.18693456403E+03 0.31856643605E+03 0.34885585964E+03
 0.31856643605E+03 0.18693456403E+03 0.24346122871E+02 -.27860656067E+02 0.55760640173E+01
 0.22451995914E+02 0.38814045028E+01 -.18230208844E+02 0.19290379965E+02 0.13496219954E+03
 0.26262172496E+03 0.29931992594E+03 0.26262172496E+03 0.13496219954E+03 0.19290379965E+02
 -.18230208844E+02 0.38814045028E+01 0.10795669829E+02 0.20092873637E+01 -.76893116945E+01
 0.12911162579E+02 0.72597188404E+02 0.14103344397E+03 0.16985417632E+03 0.14103344397E+03
 0.72597188404E+02 0.12911162579E+02 -.76893116945E+01 0.20092873637E+01 0.10795956395E+02
 0.20093333559E+01 -.76895702608E+01 0.12911322474E+02 0.72598730352E+02 0.14103658921E+03
 0.16985765619E+03 0.14103658921E+03 0.72598730352E+02 0.12911322474E+02 -.76895702608E+01
 0.20093333559E+01 0.22452544965E+02 0.38814927752E+01 -.18230706931E+02 0.19290672073E+02
 0.13496509759E+03 0.26262661652E+03 0.29932513222E+03 0.26262661652E+03 0.13496509759E+03
 0.19290672073E+02 -.18230706931E+02 0.38814927752E+01 0.32957366993E+02 0.55760961558E+01
 -.27860843554E+02 0.24346179459E+02 0.18693544410E+03 0.31856696656E+03 0.34885579027E+03
 0.31856696656E+03 0.18693544410E+03 0.24346179459E+02 -.27860843554E+02 0.55760961558E+01
 0.29811207774E+02 0.50910920487E+01 -.25372394290E+02 0.20729727885E+02 0.16790945112E+03
 0.31052198225E+03 0.34334402105E+03 0.31052198225E+03 0.16790945112E+03 0.20729727885E+02
 -.25372394290E+02 0.50910920487E+01 0.13857314954E+02 0.25564811676E+01 -.11432328159E+02
 0.94105177386E+01 0.76385911151E+02 0.15448381956E+03 0.18671771676E+03 0.15448381956E+03
 0.76385911151E+02 0.94105177386E+01 -.11432328159E+02 0.25564811676E+01 -.78007874425E+00
 0.18616304127E+00 0.13949125900E+01 -.33983402764E+00 -.59842727510E+01 -.12594906085E+02
 -.15538355033E+02 -.12594906085E+02 -.59842727510E+01 -.33983402764E+00 0.13949125900E+01
 0.18616304127E+00 -.77979366404E+00 0.18620833640E+00 0.13946625565E+01 -.33963624773E+00
 -.59826442298E+01 -.12591607037E+02 -.15534312843E+02 -.12591607037E+02 -.59826442298E+01
 -.33963624773E+00 0.13946625565E+01 0.18620833640E+00 0.11197035450E+02 0.20885153925E+01
 -.90927487088E+01 0.80566461988E+01 0.62645277346E+02 0.12634248487E+03 0.15449465416E+03
 0.12634248487E+03 0.62645277346E+02 0.80566461988E+01 -.90927487088E+01 0.20885153925E+01
 0.24107949396E+02 0.41357471149E+01 -.20306333909E+02 0.17576984044E+02 0.13775796018E+03
 0.26765818460E+03 0.31052821472E+03 0.26765818460E+03 0.13775796018E+03 0.17576984044E+02
 -.20306333909E+02 0.41357471149E+01 0.26660388364E+02 0.45317571877E+01 -.22290711042E+02
 0.20648243307E+02 0.15526361701E+03 0.28304248100E+03 0.31856937491E+03 0.28304248100E+03
 0.15526361701E+03 0.20648243307E+02 -.22290711042E+02 0.45317571877E+01 0.18170611882E+02
 0.31704619453E+01 -.14514353796E+02 0.16447575708E+02 0.11105647594E+03 0.21898261996E+03
 0.26262539668E+03 0.21898261996E+03 0.11105647594E+03 0.16447575708E+02 -.14514353796E+02
 0.31704619453E+01 0.87467322506E+01 0.16642380531E+01 -.60118057070E+01 0.11122826310E+02
 0.60150716282E+02 0.11626119459E+03 0.14103568376E+03 0.11626119459E+03 0.60150716282E+02
 0.11122826310E+02 -.60118057070E+01 0.16642380531E+01 0.87469639475E+01 0.16642750660E+01
 -.60120142368E+01 0.11122959860E+02 0.60151974218E+02 0.11626377160E+03 0.14103882905E+03
 0.11626377160E+03 0.60151974218E+02 0.11122959860E+02 -.60120142368E+01 0.16642750660E+01
 0.18171055736E+02 0.31705329394E+01 -.14514755665E+02 0.16447819298E+02 0.11105885617E+03
 0.21898705006E+03 0.26263028827E+03 0.21898705006E+03 0.11105885617E+03 0.16447819298E+02
 -.14514755665E+02 0.31705329394E+01 0.26660547138E+02 0.45317828863E+01 -.22290862878E+02
 0.20648289114E+02 0.15526436502E+03 0.28304342381E+03 0.31856990537E+03 0.28304342381E+03
 0.15526436502E+03 0.20648289114E+02 -.22290862878E+02 0.45317828863E+01 0.24107591393E+02
 0.41356905056E+01 -.20306027181E+02 0.17576698521E+02 0.13775582543E+03 0.26765502868E+03
 0.31052541717E+03 0.26765502868E+03 0.13775582543E+03 0.17576698521E+02 -.20306027181E+02
 0.41356905056E+01 0.11196445750E+02 0.20884217705E+01 -.90922334506E+01 0.80562271281E+01
 0.62641884660E+02 0.12633562249E+03 0.15448635364E+03 0.12633562249E+03 0.62641884660E+02
 0.80562271281E+01 -.90922334506E+01 0.20884217705E+01 -.40744435321E+00 0.14900624045E+00
 0.91459518594E+00 0.17487566723E+00 -.26265715074E+01 -.59844363055E+01 -.74897118213E+01
 -.59844363055E+01 -.26265715074E+01 0.17487566723E+00 0.91459518594E+00 0.14900624045E+00
 -.40730968408E+00 0.14902735139E+00 0.91448020140E+00 0.17498681906E+00 -.26257584288E+01
 -.59828077417E+01 -.74877210253E+01 -.59828077417E+01 -.26257584288E+01 0.17498681906E+00
 0.91448020140E+00 0.14902735139E+00 0.52516451467E+01 0.10364367335E+01 -.39053423860E+01
 0.48992455870E+01 0.31665452896E+02 0.62646910173E+02 0.76393318494E+02 0.62646910173E+02
 0.31665452896E+02 0.48992455870E+01 -.39053423860E+01 0.10364367335E+01 0.11358503298E+02
 0.19957171988E+01 -.90422260327E+01 0.10285649221E+02 0.69342181597E+02 0.13776154521E+03
 0.16791904126E+03 0.13776154521E+03 0.69342181597E+02 0.10285649221E+02 -.90422260327E+01
 0.19957171988E+01 0.12582420316E+02 0.21921024774E+01 -.99086559074E+01 0.12094814304E+02
 0.78592887183E+02 0.15526756507E+03 0.18694184859E+03 0.15526756507E+03 0.78592887183E+02
 0.12094814304E+02 -.99086559074E+01 0.21921024774E+01 0.85955352185E+01 0.15729813831E+01
 -.62725613568E+01 0.98420198213E+01 0.56939339950E+02 0.11105927235E+03 0.13496777927E+03
 0.11105927235E+03 0.56939339950E+02 0.98420198213E+01 -.62725613568E+01 0.15729813831E+01
 0.41607374599E+01 0.88198787248E+00 -.23193987672E+01 0.69270671954E+01 0.31900198252E+02
 0.60152142326E+02 0.72600058226E+02 0.60152142326E+02 0.31900198252E+02 0.69270671954E+01
 -.23193987672E+01 0.88198787248E+00 0.41608465313E+01 0.88200487626E+00 -.23194956298E+01
 0.69271405122E+01 0.31900817862E+02 0.60153400297E+02 0.72601600242E+02 0.60153400297E+02
 0.31900817862E+02 0.69271405122E+01 -.23194956298E+01 0.88200487626E+00 0.85957439918E+01
 0.15730138872E+01 -.62727484493E+01 0.98421526056E+01 0.56940508353E+02 0.11106165265E+03
 0.13497067744E+03 0.11106165265E+03 0.56940508353E+02 0.98421526056E+01 -.62727484493E+01
 0.15730138872E+01 0.12582494420E+02 0.21921138703E+01 -.99087280159E+01 0.12094835935E+02
 0.78593242506E+02 0.15526831310E+03 0.18694272869E+03 0.15526831310E+03 0.78593242506E+02
 0.12094835935E+02 -.99087280159E+01 0.21921138703E+01 0.11358333661E+02 0.19956904769E+01
 -.90420862941E+01 0.10285486384E+02 0.69341104232E+02 0.13775941040E+03 0.16791650198E+03
 0.13775941040E+03 0.69341104232E+02 0.10285486384E+02 -.90420862941E+01 0.19956904769E+01
 0.52513664390E+01 0.10363930081E+01 -.39051057842E+01 0.48990094339E+01 0.31663755923E+02
 0.62643517398E+02 0.76389172637E+02 0.62643517398E+02 0.31663755923E+02 0.48990094339E+01
 -.39051057842E+01 0.10363930081E+01 -.81504326532E-01 0.96094862526E-01 0.42659578351E+00
 0.51203203017E+00 0.17482147907E+00 -.33997040814E+00 -.58501723212E+00 -.33997040814E+00
 0.17482147907E+00 0.51203203017E+00 0.42659578351E+00 0.96094862526E-01 -.81496117148E-01
 0.96095782185E-01 0.42659327278E+00 0.51206383879E+00 0.17493264661E+00 -.33977259176E+00
 -.58478166583E+00 -.33977259176E+00 0.17493264661E+00 0.51206383879E+00 0.42659327278E+00
 0.96095782184E-01 0.26515644189E+00 0.13592187576E+00 0.32602984743E+00 0.18709207250E+01
 0.48998528875E+01 0.80580448764E+01 0.94128531005E+01 0.80580448764E+01 0.48998528875E+01
 0.18709207250E+01 0.32602984743E+00 0.13592187576E+00 0.64832316091E+00 0.18526699740E+00
 0.24411294098E+00 0.34569858644E+01 0.10286975570E+02 0.17580053614E+02 0.20734113232E+02
 0.17580053614E+02 0.10286975570E+02 0.34569858644E+01 0.24411294098E+00 0.18526699740E+00
 0.74809317973E+00 0.21127287768E+00 0.29504456245E+00 0.40777668998E+01 0.12096297975E+02
 0.20651684145E+02 0.24350670160E+02 0.20651684145E+02 0.12096297975E+02 0.40777668998E+01
 0.29504456246E+00 0.21127287768E+00 0.53773762208E+00 0.20696873007E+00 0.46516993981E+00
 0.35669304992E+01 0.98430569468E+01 0.16449988731E+02 0.19293584759E+02 0.16449988731E+02
 0.98430569468E+01 0.35669304992E+01 0.46516993982E+00 0.20696873008E+00 0.29086699009E+00
 0.19314559890E+00 0.61664847118E+00 0.28288817147E+01 0.69276001988E+01 0.11124075643E+02
 0.12912841610E+02 0.11124075643E+02 0.69276001988E+01 0.28288817147E+01 0.61664847118E+00
 0.19314559890E+00 0.29087311289E+00 0.19314597472E+00 0.61664489564E+00 0.28289005412E+01
 0.69276735281E+01 0.11124209222E+02 0.12913001542E+02 0.11124209222E+02 0.69276735281E+01
 0.28289005412E+01 0.61664489564E+00 0.19314597472E+00 0.53774910386E+00 0.20696928263E+00
 0.46516239876E+00 0.35669634002E+01 0.98431897547E+01 0.16450232375E+02 0.19293876939E+02
 0.16450232375E+02 0.98431897547E+01 0.35669634002E+01 0.46516239876E+00 0.20696928263E+00
 0.74809645205E+00 0.21127251045E+00 0.29503953181E+00 0.40777679914E+01 0.12096319614E+02
 0.20651729971E+02 0.24350726771E+02 0.20651729971E+02 0.12096319614E+02 0.40777679914E+01
 0.29503953182E+00 0.21127251045E+00 0.64831210106E+00 0.18526533467E+00 0.24411399662E+00
 0.34569363208E+01 0.10286812712E+02 0.17579768045E+02 0.20733774345E+02 0.17579768045E+02
 0.10286812712E+02 0.34569363208E+01 0.24411399662E+00 0.18526533467E+00 0.26513925931E+00
 0.13591983733E+00 0.32603447892E+00 0.18708523556E+01 0.48996167018E+01 0.80576257299E+01
 0.94123542829E+01 0.80576257299E+01 0.48996167018E+01 0.18708523556E+01 0.32603447893E+00
 0.13591983734E+00 0.33011762889E-01 0.40693264925E-01 0.13273513142E+00 0.42659018195E+00
 0.91458453859E+00 0.13949053531E+01 0.15967264962E+01 0.13949053531E+01 0.91458453859E+00
 0.42659018195E+00 0.13273513142E+00 0.40693264925E-01 0.32984744703E-01 0.40688825984E-01
 0.13276194452E+00 0.42658767462E+00 0.91446955920E+00 0.13946553225E+01 0.15964158932E+01
 0.13946553225E+01 0.91446955920E+00 0.42658767462E+00 0.13276194452E+00 0.40688825984E-01
 -.11011001724E+01 -.14489616801E+00 0.12608489695E+01 0.32616696680E+00 -.39051357873E+01
 -.90926321370E+01 -.11433048920E+02 -.90926321370E+01 -.39051357873E+01 0.32616696680E+00
 0.12608489695E+01 -.14489616801E+00 -.23182008102E+01 -.34007752923E+00 0.24856027862E+01
 0.24440488356E+00 -.90417814853E+01 -.20306076429E+02 -.25372940389E+02 -.20306076429E+02
 -.90417814853E+01 0.24440488356E+00 0.24856027862E+01 -.34007752923E+00 -.25450493720E+01
 -.36630444185E+00 0.27497433476E+01 0.29536958393E+00 -.99081547770E+01 -.22290406833E+02
 -.27860811956E+02 -.22290406833E+02 -.99081547770E+01 0.29536958393E+00 0.27497433476E+01
 -.36630444185E+00 -.17208813926E+01 -.21655303451E+00 0.19825085960E+01 0.46539743456E+00
 -.62722001674E+01 -.14514109558E+02 -.18230266059E+02 -.14514109558E+02 -.62722001674E+01
 0.46539743456E+00 0.19825085960E+01 -.21655303451E+00 -.81369573489E+00 -.57205238973E-01
 0.11186053142E+01 0.61676633328E+00 -.23191982269E+01 -.60116385413E+01 -.76892733590E+01
 -.60116385413E+01 -.23191982269E+01 0.61676633328E+00 0.11186053142E+01 -.57205238972E-01
 -.81371800863E+00 -.57209129361E-01 0.11186266030E+01 0.61676276044E+00 -.23192950856E+01
 -.60118470691E+01 -.76895319276E+01 -.60118470691E+01 -.23192950856E+01 0.61676276044E+00
 0.11186266030E+01 -.57209129359E-01 -.17209242035E+01 -.21656061457E+00 0.19825491515E+01
 0.46538989865E+00 -.62723872524E+01 -.14514511423E+02 -.18230764151E+02 -.14514511423E+02
 -.62723872524E+01 0.46538989865E+00 0.19825491515E+01 -.21656061457E+00 -.25450651648E+01
 -.36630758303E+00 0.27497570899E+01 0.29536455505E+00 -.99082268832E+01 -.22290558668E+02
 -.27860999446E+02 -.22290558668E+02 -.99082268832E+01 0.29536455505E+00 0.27497570899E+01
 -.36630758302E+00 -.23181673111E+01 -.34007234107E+00 0.24855684265E+01 0.24440593486E+00
 -.90416417534E+01 -.20305769706E+02 -.25372558707E+02 -.20305769706E+02 -.90416417534E+01
 0.24440593486E+00 0.24855684265E+01 -.34007234107E+00 -.11010443994E+01 -.14488708941E+00
 0.12607933212E+01 0.32617159126E+00 -.39048991962E+01 -.90921168850E+01 -.11432408668E+02
 -.90921168850E+01 -.39048991962E+01 0.32617159126E+00 0.12607933212E+01 -.14488708941E+00
 -.17199853826E-01 -.14443497175E-02 0.40692356223E-01 0.96105273404E-01 0.14904202036E+00
 0.18622645589E+00 0.19950586040E+00 0.18622645589E+00 0.14904202036E+00 0.96105273405E-01
 0.40692356223E-01 -.14443497172E-02 -.17194819453E-01 -.14433075172E-02 0.40687918886E-01
 0.96106192086E-01 0.14906312277E+00 0.18627173425E+00 0.19956197436E+00 0.18627173425E+00
 0.14906312277E+00 0.96106192086E-01 0.40687918886E-01 -.14433075169E-02 0.19394732595E+00
 0.42414487809E-01 -.14482972446E+00 0.13589125020E+00 0.10361142457E+01 0.20878746079E+01
 0.25558443628E+01 0.20878746079E+01 0.10361142457E+01 0.13589125020E+00 -.14482972446E+00
 0.42414487809E-01 0.41961046178E+00 0.90093464600E-01 -.33993863624E+00 0.18519216090E+00
 0.19950089499E+01 0.41343479750E+01 0.50895164602E+01 0.41343479750E+01 0.19950089499E+01
 0.18519216090E+00 -.33993863624E+00 0.90093464600E-01 0.45929018360E+00 0.10053469224E+00
 -.36615161603E+00 0.21118936393E+00 0.21913190780E+01 0.45302100163E+01 0.55742436736E+01
 0.45302100163E+01 0.21913190780E+01 0.21118936393E+00 -.36615161603E+00 0.10053469224E+00
 0.30235799634E+00 0.70939938280E-01 -.21644852474E+00 0.20691439723E+00 0.15724535742E+01
 0.31694167203E+01 0.38801742307E+01 0.31694167203E+01 0.15724535742E+01 0.20691439723E+00
 -.21644852474E+00 0.70939938280E-01 0.13090430411E+00 0.37524145068E-01 -.57154144126E-01
 0.19312362247E+00 0.88174315658E+00 0.16637489485E+01 0.20087111220E+01 0.16637489485E+01
 0.88174315658E+00 0.19312362247E+00 -.57154144125E-01 0.37524145068E-01 0.13090850854E+00
 0.37524968840E-01 -.57158033201E-01 0.19312399750E+00 0.88176015341E+00 0.16637859477E+01
 0.20087570982E+01 0.16637859477E+01 0.88176015341E+00 0.19312399750E+00 -.57158033201E-01
 0.37524968840E-01 0.30236610137E+00 0.70941505888E-01 -.21645610228E+00 0.20691494826E+00
 0.15724860649E+01 0.31694876882E+01 0.38802624723E+01 0.31694876882E+01 0.15724860649E+01
 0.20691494826E+00 -.21645610228E+00 0.70941505889E-01 0.45929325424E+00 0.10053521762E+00
 -.36615475630E+00 0.21118899615E+00 0.21913304661E+01 0.45302357055E+01 0.55742758009E+01
 0.45302357055E+01 0.21913304661E+01 0.21118899615E+00 -.36615475630E+00 0.10053521762E+00
 0.41960429363E+00 0.90092123992E-01 -.33993345008E+00 0.18519049939E+00 0.19949822388E+01
 0.41342913866E+01 0.50894464974E+01 0.41342913866E+01 0.19949822388E+01 0.18519049940E+00
 -.33993345008E+00 0.90092123992E-01 0.19393695339E+00 0.42412323462E-01 -.14482064917E+00
 0.13588921379E+00 0.10360705379E+01 0.20877810206E+01 0.25557284241E+01 0.20877810206E+01
 0.10360705379E+01 0.13588921379E+00 -.14482064917E+00 0.42412323463E-01 -.63909028328E-01
 -.17202906860E-01 0.33012081253E-01 -.81495115610E-01 -.40742871751E+00 -.78006647926E+00
 -.94478670320E+00 -.78006647926E+00 -.40742871751E+00 -.81495115610E-01 0.33012081253E-01
 -.17202906860E-01 -.63880036914E-01 -.17197870873E-01 0.32985063443E-01 -.81486909607E-01
 -.40729405461E+00 -.77978140406E+00 -.94443435039E+00 -.77978140406E+00 -.40729405461E+00
 -.81486909607E-01 0.32985063443E-01 -.17197870873E-01 0.11530735189E+01 0.19401203434E+00
 -.11010840899E+01 0.26502359160E+00 0.52513989574E+01 0.11196837881E+02 0.13858043723E+02
 0.11196837881E+02 0.52513989574E+01 0.26502359160E+00 -.11010840899E+01 0.19401203434E+00
 0.24593574752E+01 0.41974795051E+00 -.23181680073E+01 0.64803715005E+00 0.11357975102E+02
 0.24107525873E+02 0.29811649958E+02 0.24107525873E+02 0.11357975102E+02 0.64803715005E+00